 Entering Link 1 = C:\G09W\l1.exe PID=      6572.
  
 Copyright (c) 1988,1990,1992,1993,1995,1998,2003,2009, Gaussian, Inc.
                  All Rights Reserved.
  
 This is part of the Gaussian(R) 09 program.  It is based on
 the Gaussian(R) 03 system (copyright 2003, Gaussian, Inc.),
 the Gaussian(R) 98 system (copyright 1998, Gaussian, Inc.),
 the Gaussian(R) 94 system (copyright 1995, Gaussian, Inc.),
 the Gaussian 92(TM) system (copyright 1992, Gaussian, Inc.),
 the Gaussian 90(TM) system (copyright 1990, Gaussian, Inc.),
 the Gaussian 88(TM) system (copyright 1988, Gaussian, Inc.),
 the Gaussian 86(TM) system (copyright 1986, Carnegie Mellon
 University), and the Gaussian 82(TM) system (copyright 1983,
 Carnegie Mellon University). Gaussian is a federally registered
 trademark of Gaussian, Inc.
  
 This software contains proprietary and confidential information,
 including trade secrets, belonging to Gaussian, Inc.
  
 This software is provided under written license and may be
 used, copied, transmitted, or stored only in accord with that
 written license.
  
 The following legend is applicable only to US Government
 contracts under FAR:
  
                    RESTRICTED RIGHTS LEGEND
  
 Use, reproduction and disclosure by the US Government is
 subject to restrictions as set forth in subparagraphs (a)
 and (c) of the Commercial Computer Software - Restricted
 Rights clause in FAR 52.227-19.
  
 Gaussian, Inc.
 340 Quinnipiac St., Bldg. 40, Wallingford CT 06492
  
  
 ---------------------------------------------------------------
 Warning -- This program may not be used in any manner that
 competes with the business of Gaussian, Inc. or will provide
 assistance to any competitor of Gaussian, Inc.  The licensee
 of this program is prohibited from giving any competitor of
 Gaussian, Inc. access to this program.  By using this program,
 the user acknowledges that Gaussian, Inc. is engaged in the
 business of creating and licensing software in the field of
 computational chemistry and represents and warrants to the
 licensee that it is not a competitor of Gaussian, Inc. and that
 it will not use this program in any manner prohibited above.
 ---------------------------------------------------------------
  

 Cite this work as:
 Gaussian 09, Revision A.02,
 M. J. Frisch, G. W. Trucks, H. B. Schlegel, G. E. Scuseria, 
 M. A. Robb, J. R. Cheeseman, G. Scalmani, V. Barone, B. Mennucci, 
 G. A. Petersson, H. Nakatsuji, M. Caricato, X. Li, H. P. Hratchian, 
 A. F. Izmaylov, J. Bloino, G. Zheng, J. L. Sonnenberg, M. Hada, 
 M. Ehara, K. Toyota, R. Fukuda, J. Hasegawa, M. Ishida, T. Nakajima, 
 Y. Honda, O. Kitao, H. Nakai, T. Vreven, J. A. Montgomery, Jr., 
 J. E. Peralta, F. Ogliaro, M. Bearpark, J. J. Heyd, E. Brothers, 
 K. N. Kudin, V. N. Staroverov, R. Kobayashi, J. Normand, 
 K. Raghavachari, A. Rendell, J. C. Burant, S. S. Iyengar, J. Tomasi, 
 M. Cossi, N. Rega, J. M. Millam, M. Klene, J. E. Knox, J. B. Cross, 
 V. Bakken, C. Adamo, J. Jaramillo, R. Gomperts, R. E. Stratmann, 
 O. Yazyev, A. J. Austin, R. Cammi, C. Pomelli, J. W. Ochterski, 
 R. L. Martin, K. Morokuma, V. G. Zakrzewski, G. A. Voth, 
 P. Salvador, J. J. Dannenberg, S. Dapprich, A. D. Daniels, 
 O. Farkas, J. B. Foresman, J. V. Ortiz, J. Cioslowski, 
 and D. J. Fox, Gaussian, Inc., Wallingford CT, 2009.
 
 ******************************************
 Gaussian 09:  IA32W-G09RevA.02 11-Jun-2009
                27-Jun-2024 
 ******************************************
 %chk=C:\Users\user01\Desktop\Formamide\Formamide_Li-C1_Water.chk
 ----------------------------------------------------------------------
 # opt freq b3lyp/6-31+g(d) scrf=(cpcm,solvent=water) geom=connectivity
 ----------------------------------------------------------------------
 1/14=-1,18=20,19=15,26=3,38=1,57=2/1,3;
 2/9=110,12=2,17=6,18=5,40=1/2;
 3/5=1,6=6,7=11,11=2,16=1,25=1,30=1,70=2101,71=1,72=1,74=-5/1,2,3;
 4//1;
 5/5=2,38=5,53=1/2;
 6/7=2,8=2,9=2,10=2,28=1/1;
 7//1,2,3,16;
 1/14=-1,18=20,19=15/3(2);
 2/9=110/2;
 99//99;
 2/9=110/2;
 3/5=1,6=6,7=11,11=2,16=1,25=1,30=1,70=2105,71=1,72=1,74=-5/1,2,3;
 4/5=5,16=3/1;
 5/5=2,38=5,53=1/2;
 7//1,2,3,16;
 1/14=-1,18=20,19=15/3(-5);
 2/9=110/2;
 6/7=2,8=2,9=2,10=2,19=2,28=1/1;
 99/9=1/99;
 -----
 M0001
 -----
 Symbolic Z-matrix:
 Charge =  1 Multiplicity = 1
 H                    -1.55962   0.        0.22901 
 C                    -0.49102   0.       -0.04624 
 O                    -0.09031   0.       -1.20943 
 N                     0.3353    0.        1.02837 
 H                     1.34272   0.        0.92882 
 H                    -0.02569   0.        1.97756 
 Li                    0.48862   0.       -2.90809 
 

 GradGradGradGradGradGradGradGradGradGradGradGradGradGradGradGradGradGrad
 Berny optimization.
 Initialization pass.
                           ----------------------------
                           !    Initial Parameters    !
                           ! (Angstroms and Degrees)  !
 --------------------------                            --------------------------
 ! Name  Definition              Value          Derivative Info.                !
 --------------------------------------------------------------------------------
 ! R1    R(1,2)                  1.1035         estimate D2E/DX2                !
 ! R2    R(2,3)                  1.2303         estimate D2E/DX2                !
 ! R3    R(2,4)                  1.3556         estimate D2E/DX2                !
 ! R4    R(3,7)                  1.7946         estimate D2E/DX2                !
 ! R5    R(4,5)                  1.0123         estimate D2E/DX2                !
 ! R6    R(4,6)                  1.0155         estimate D2E/DX2                !
 ! A1    A(1,2,3)              123.4525         estimate D2E/DX2                !
 ! A2    A(1,2,4)              113.1142         estimate D2E/DX2                !
 ! A3    A(3,2,4)              123.4333         estimate D2E/DX2                !
 ! A4    A(2,4,5)              121.9146         estimate D2E/DX2                !
 ! A5    A(2,4,6)              121.6194         estimate D2E/DX2                !
 ! A6    A(5,4,6)              116.466          estimate D2E/DX2                !
 ! A7    L(2,3,7,4,-1)         180.1884         estimate D2E/DX2                !
 ! A8    L(2,3,7,4,-2)         180.0            estimate D2E/DX2                !
 ! D1    D(1,2,4,5)            180.0            estimate D2E/DX2                !
 ! D2    D(1,2,4,6)              0.0            estimate D2E/DX2                !
 ! D3    D(3,2,4,5)              0.0            estimate D2E/DX2                !
 ! D4    D(3,2,4,6)            180.0            estimate D2E/DX2                !
 --------------------------------------------------------------------------------
 Trust Radius=3.00D-01 FncErr=1.00D-07 GrdErr=1.00D-06
 Number of steps in this run=  28 maximum allowed number of steps= 100.
 GradGradGradGradGradGradGradGradGradGradGradGradGradGradGradGradGradGrad

                          Input orientation:                          
 ---------------------------------------------------------------------
 Center     Atomic      Atomic             Coordinates (Angstroms)
 Number     Number       Type             X           Y           Z
 ---------------------------------------------------------------------
      1          1           0       -1.559617    0.000000    0.229006
      2          6           0       -0.491021    0.000000   -0.046239
      3          8           0       -0.090313    0.000000   -1.209425
      4          7           0        0.335296    0.000000    1.028372
      5          1           0        1.342724    0.000000    0.928816
      6          1           0       -0.025691    0.000000    1.977564
      7          3           0        0.488623    0.000000   -2.908094
 ---------------------------------------------------------------------
                    Distance matrix (angstroms):
                    1          2          3          4          5
     1  H    0.000000
     2  C    1.103475   0.000000
     3  O    2.056195   1.230272   0.000000
     4  N    2.056618   1.355577   2.277911   0.000000
     5  H    2.985518   2.076862   2.574038   1.012335   0.000000
     6  H    2.326023   2.076610   3.187644   1.015517   1.724074
     7  Li   3.746556   3.024883   1.794615   3.939451   3.930823
                    6          7
     6  H    0.000000
     7  Li   4.912654   0.000000
 Stoichiometry    CH3LiNO(1+)
 Framework group  CS[SG(CH3LiNO)]
 Deg. of freedom    11
 Full point group                 CS      NOp   2
 Largest Abelian subgroup         CS      NOp   2
 Largest concise Abelian subgroup C1      NOp   1
                         Standard orientation:                         
 ---------------------------------------------------------------------
 Center     Atomic      Atomic             Coordinates (Angstroms)
 Number     Number       Type             X           Y           Z
 ---------------------------------------------------------------------
      1          1           0        0.264837    1.624925    0.000000
      2          6           0        0.000000    0.553702    0.000000
      3          8           0        0.833702   -0.351013    0.000000
      4          7           0       -1.338035    0.336328    0.000000
      5          1           0       -1.728490   -0.597678    0.000000
      6          1           0       -2.002224    1.104526    0.000000
      7          3           0        2.054168   -1.666728    0.000000
 ---------------------------------------------------------------------
 Rotational constants (GHZ):     48.1964101      5.4611983      4.9053650
 Standard basis: 6-31+G(d) (6D, 7F)
 There are    62 symmetry adapted basis functions of A'  symmetry.
 There are    20 symmetry adapted basis functions of A"  symmetry.
 Integral buffers will be    262144 words long.
 Raffenetti 2 integral format.
 Two-electron integral symmetry is turned on.
    82 basis functions,   140 primitive gaussians,    82 cartesian basis functions
    13 alpha electrons       13 beta electrons
       nuclear repulsion energy        85.0347345693 Hartrees.
 NAtoms=    7 NActive=    7 NUniq=    7 SFac= 7.50D-01 NAtFMM=   80 NAOKFM=F Big=F
 ------------------------------------------------------------------------------
 Polarizable Continuum Model (PCM)
 =================================
 Model                : C-PCM.
 Atomic radii         : UFF (Universal Force Field).
 Polarization charges : Total charges.
 Charge compensation  : None.
 Solution method      : Matrix inversion.
 Cavity type          : Scaled VdW (van der Waals Surface) (Alpha=1.100).
 Cavity algorithm     : GePol (No added spheres)
                        Default sphere list used, NSphG=    7.
                        Lebedev-Laikov grids with approx.  5.0 points / Ang**2.
                        Smoothing algorithm: Karplus/York (Gamma=1.0000).
                        Polarization charges: spherical gaussians, with
                                              point-specific exponents (IZeta= 3).
                        Self-potential: point-specific (ISelfS= 7).
                        Self-field    : sphere-specific E.n sum rule (ISelfD= 2).
 1st derivatives      : Analytical E(r).r(x)/FMM algorithm (CHGder, D1EAlg=3).
                        Cavity 1st derivative terms included.
 Solvent              : Water, Eps=  78.355300 Eps(inf)=   1.777849
 ------------------------------------------------------------------------------
 Spheres list:
 ISph  on   Nord    Re0     Alpha      Xe            Ye            Ze
    1   H      1    1.443   1.100      0.264837      1.624925      0.000000
    2   C      2    1.926   1.100      0.000000      0.553702      0.000000
    3   O      3    1.750   1.100      0.833702     -0.351013      0.000000
    4   N      4    1.830   1.100     -1.338035      0.336328      0.000000
    5   H      5    1.443   1.100     -1.728490     -0.597678      0.000000
    6   H      6    1.443   1.100     -2.002224      1.104526      0.000000
    7  Li      7    1.226   1.100      2.054168     -1.666728      0.000000
 ------------------------------------------------------------------------------
 One-electron integrals computed using PRISM.
 NBasis=    82 RedAO= T  NBF=    62    20
 NBsUse=    82 1.00D-06 NBFU=    62    20
 Harris functional with IExCor=  402 diagonalized for initial guess.
 ExpMin= 7.40D-03 ExpMax= 5.48D+03 ExpMxC= 8.25D+02 IAcc=3 IRadAn=         0 AccDes= 0.00D+00
 HarFok:  IExCor=  402 AccDes= 0.00D+00 IRadAn=         0 IDoV= 1
 ScaDFX=  1.000000  1.000000  1.000000  1.000000
 FoFCou: FMM=F IPFlag=           0 FMFlag=      100000 FMFlg1=           0
         NFxFlg=           0 DoJE=T BraDBF=F KetDBF=T FulRan=T
         Omega=  0.000000  0.000000  1.000000  0.000000  0.000000 ICntrl=     500 IOpCl=  0
         NMat0=    1 NMatS0=    1 NMatT0=    0 NMatD0=    1 NMtDS0=    0 NMtDT0=    0
         I1Cent=           4 NGrid=           0.
 Petite list used in FoFCou.
 Initial guess orbital symmetries:
       Occupied  (A') (A') (A') (A') (A') (A') (A') (A') (A') (A')
                 (A") (A') (A")
       Virtual   (A") (A') (A') (A') (A") (A') (A') (A') (A") (A')
                 (A') (A") (A') (A') (A') (A') (A") (A") (A') (A')
                 (A') (A') (A') (A") (A') (A') (A') (A') (A') (A")
                 (A') (A") (A') (A') (A") (A') (A') (A") (A') (A')
                 (A') (A') (A') (A") (A') (A') (A') (A') (A") (A')
                 (A") (A') (A") (A') (A") (A') (A') (A') (A") (A')
                 (A') (A') (A") (A') (A') (A') (A') (A') (A')
 The electronic state of the initial guess is 1-A'.
 Requested convergence on RMS density matrix=1.00D-08 within 128 cycles.
 Requested convergence on MAX density matrix=1.00D-06.
 Requested convergence on             energy=1.00D-06.
 No special actions if energy rises.
 Keep R1 ints in memory in canonical form, NReq=9426016.
 Error on total polarization charges =  0.00726
 SCF Done:  E(RB3LYP) =  -177.400247246     A.U. after   10 cycles
             Convg  =    0.8752D-08             -V/T =  2.0106

 **********************************************************************

            Population analysis using the SCF density.

 **********************************************************************

 Orbital symmetries:
       Occupied  (A') (A') (A') (A') (A') (A') (A') (A') (A') (A')
                 (A") (A') (A")
       Virtual   (A") (A') (A') (A') (A") (A') (A') (A') (A") (A')
                 (A') (A") (A') (A') (A') (A") (A') (A') (A") (A')
                 (A') (A') (A') (A") (A') (A') (A') (A') (A') (A")
                 (A') (A") (A') (A") (A') (A') (A') (A") (A') (A')
                 (A') (A') (A') (A") (A') (A') (A') (A') (A") (A')
                 (A") (A') (A") (A') (A") (A') (A') (A') (A') (A")
                 (A') (A') (A") (A') (A') (A') (A') (A') (A')
 The electronic state is 1-A'.
 Alpha  occ. eigenvalues --  -19.17033 -14.39219 -10.33082  -1.95420  -1.07882
 Alpha  occ. eigenvalues --   -0.93480  -0.65767  -0.57528  -0.52351  -0.47105
 Alpha  occ. eigenvalues --   -0.44074  -0.31168  -0.30972
 Alpha virt. eigenvalues --   -0.02268  -0.01169   0.00263   0.00473   0.00812
 Alpha virt. eigenvalues --    0.03749   0.04002   0.04468   0.05986   0.06883
 Alpha virt. eigenvalues --    0.07184   0.08822   0.11370   0.11950   0.12539
 Alpha virt. eigenvalues --    0.15292   0.18836   0.19953   0.20777   0.21314
 Alpha virt. eigenvalues --    0.21849   0.24339   0.26605   0.27727   0.29071
 Alpha virt. eigenvalues --    0.32362   0.33843   0.36075   0.45042   0.55184
 Alpha virt. eigenvalues --    0.55863   0.63051   0.63988   0.70062   0.71593
 Alpha virt. eigenvalues --    0.75753   0.81848   0.88079   0.88536   0.88929
 Alpha virt. eigenvalues --    0.99288   1.01530   1.12634   1.21480   1.25330
 Alpha virt. eigenvalues --    1.28177   1.29375   1.34132   1.35754   1.39864
 Alpha virt. eigenvalues --    1.50764   1.58800   1.66878   1.77623   1.80740
 Alpha virt. eigenvalues --    1.85437   2.01445   2.10973   2.26983   2.27005
 Alpha virt. eigenvalues --    2.35117   2.52613   2.58283   2.68369   2.93682
 Alpha virt. eigenvalues --    3.05933   3.89061   4.20169   4.37154
          Condensed to atoms (all electrons):
              1          2          3          4          5          6
     1  H    0.522547   0.425436  -0.053556  -0.116644   0.003526   0.004341
     2  C    0.425436   4.523034   0.512941   0.316266  -0.008924   0.000028
     3  O   -0.053556   0.512941   7.988399  -0.162895   0.002416   0.010585
     4  N   -0.116644   0.316266  -0.162895   7.116754   0.290305   0.266508
     5  H    0.003526  -0.008924   0.002416   0.290305   0.288210  -0.010487
     6  H    0.004341   0.000028   0.010585   0.266508  -0.010487   0.295789
     7  Li   0.002401  -0.018905   0.137830  -0.002490   0.001046   0.001094
              7
     1  H    0.002401
     2  C   -0.018905
     3  O    0.137830
     4  N   -0.002490
     5  H    0.001046
     6  H    0.001094
     7  Li   2.063624
 Mulliken atomic charges:
              1
     1  H    0.211950
     2  C    0.250125
     3  O   -0.435721
     4  N   -0.707804
     5  H    0.433908
     6  H    0.432142
     7  Li   0.815400
 Sum of Mulliken atomic charges =   1.00000
 Mulliken charges with hydrogens summed into heavy atoms:
              1
     2  C    0.462075
     3  O   -0.435721
     4  N    0.158246
     7  Li   0.815400
 Sum of Mulliken charges with hydrogens summed into heavy atoms =   1.00000
 Electronic spatial extent (au):  <R**2>=            204.9799
 Charge=              1.0000 electrons
 Dipole moment (field-independent basis, Debye):
    X=              4.4113    Y=             -4.7333    Z=              0.0000  Tot=              6.4702
 Quadrupole moment (field-independent basis, Debye-Ang):
   XX=              4.9862   YY=             -1.8795   ZZ=            -19.5015
   XY=            -15.4643   XZ=              0.0000   YZ=              0.0000
 Traceless Quadrupole moment (field-independent basis, Debye-Ang):
   XX=             10.4511   YY=              3.5855   ZZ=            -14.0366
   XY=            -15.4643   XZ=              0.0000   YZ=              0.0000
 Octapole moment (field-independent basis, Debye-Ang**2):
  XXX=             32.4766  YYY=            -25.5224  ZZZ=              0.0000  XYY=             25.4031
  XXY=            -32.5981  XXZ=              0.0000  XZZ=              4.6001  YZZ=             -3.2158
  YYZ=              0.0000  XYZ=              0.0000
 Hexadecapole moment (field-independent basis, Debye-Ang**3):
 XXXX=            -23.3468 YYYY=            -14.1895 ZZZZ=            -19.3710 XXXY=            -56.7827
 XXXZ=              0.0000 YYYX=            -29.1585 YYYZ=              0.0000 ZZZX=              0.0000
 ZZZY=              0.0000 XXYY=             33.7030 XXZZ=            -28.5206 YYZZ=            -13.2495
 XXYZ=              0.0000 YYXZ=              0.0000 ZZXY=              6.9495
 N-N= 8.503473456928D+01 E-N=-5.794711897375D+02  KE= 1.755363079020D+02
 Symmetry A'   KE= 1.684894931050D+02
 Symmetry A"   KE= 7.046814796924D+00
 D1PCM: C-PCM CHGder 1st derivatives, ID1Alg=3 FixD1E=F DoIter=F DoCFld=F I1PDM=0.
 Calling FoFJK, ICntrl=      2127 FMM=F ISym2X=1 I1Cent= 0 IOpClX= 0 NMat=1 NMatS=1 NMatT=0.
 ***** Axes restored to original set *****
 -------------------------------------------------------------------
 Center     Atomic                   Forces (Hartrees/Bohr)
 Number     Number              X              Y              Z
 -------------------------------------------------------------------
      1        1           0.002503044    0.000000000   -0.003899847
      2        6           0.010207014    0.000000000    0.026877806
      3        8          -0.004189819    0.000000000    0.000185312
      4        7          -0.011534425    0.000000000   -0.005771348
      5        1           0.001250539    0.000000000   -0.003504106
      6        1          -0.001590906    0.000000000   -0.003690771
      7        3           0.003354552    0.000000000   -0.010197047
 -------------------------------------------------------------------
 Cartesian Forces:  Max     0.026877806 RMS     0.007487266

 GradGradGradGradGradGradGradGradGradGradGradGradGradGradGradGradGradGrad
 Berny optimization.
 Internal  Forces:  Max     0.017529219 RMS     0.005781730
 Search for a local minimum.
 Step number   1 out of a maximum of   28
 All quantities printed in internal units (Hartrees-Bohrs-Radians)
 Mixed Optimization -- RFO/linear search
 Second derivative matrix not updated -- first step.
 The second derivative matrix:
                          R1        R2        R3        R4        R5
           R1           0.33301
           R2           0.00000   0.90973
           R3           0.00000   0.00000   0.53852
           R4           0.00000   0.00000   0.00000   0.14135
           R5           0.00000   0.00000   0.00000   0.00000   0.45584
           R6           0.00000   0.00000   0.00000   0.00000   0.00000
           A1           0.00000   0.00000   0.00000   0.00000   0.00000
           A2           0.00000   0.00000   0.00000   0.00000   0.00000
           A3           0.00000   0.00000   0.00000   0.00000   0.00000
           A4           0.00000   0.00000   0.00000   0.00000   0.00000
           A5           0.00000   0.00000   0.00000   0.00000   0.00000
           A6           0.00000   0.00000   0.00000   0.00000   0.00000
           A7           0.00000   0.00000   0.00000   0.00000   0.00000
           A8           0.00000   0.00000   0.00000   0.00000   0.00000
           D1           0.00000   0.00000   0.00000   0.00000   0.00000
           D2           0.00000   0.00000   0.00000   0.00000   0.00000
           D3           0.00000   0.00000   0.00000   0.00000   0.00000
           D4           0.00000   0.00000   0.00000   0.00000   0.00000
                          R6        A1        A2        A3        A4
           R6           0.45061
           A1           0.00000   0.16000
           A2           0.00000   0.00000   0.16000
           A3           0.00000   0.00000   0.00000   0.25000
           A4           0.00000   0.00000   0.00000   0.00000   0.16000
           A5           0.00000   0.00000   0.00000   0.00000   0.00000
           A6           0.00000   0.00000   0.00000   0.00000   0.00000
           A7           0.00000   0.00000   0.00000   0.00000   0.00000
           A8           0.00000   0.00000   0.00000   0.00000   0.00000
           D1           0.00000   0.00000   0.00000   0.00000   0.00000
           D2           0.00000   0.00000   0.00000   0.00000   0.00000
           D3           0.00000   0.00000   0.00000   0.00000   0.00000
           D4           0.00000   0.00000   0.00000   0.00000   0.00000
                          A5        A6        A7        A8        D1
           A5           0.16000
           A6           0.00000   0.16000
           A7           0.00000   0.00000   0.02162
           A8           0.00000   0.00000   0.00000   0.02162
           D1           0.00000   0.00000   0.00000   0.00000   0.02279
           D2           0.00000   0.00000   0.00000   0.00000   0.00000
           D3           0.00000   0.00000   0.00000   0.00000   0.00000
           D4           0.00000   0.00000   0.00000   0.00000   0.00000
                          D2        D3        D4
           D2           0.02279
           D3           0.00000   0.02279
           D4           0.00000   0.00000   0.02279
     Eigenvalues ---    0.02162   0.02162   0.02279   0.02279   0.02279
     Eigenvalues ---    0.14135   0.16000   0.16000   0.16000   0.22000
     Eigenvalues ---    0.33301   0.45061   0.45584   0.53852   0.90973
     Eigenvalues --- 1000.000001000.000001000.00000
 RFO step:  Lambda=-1.92855310D-03 EMin= 2.16176405D-02
 Linear search not attempted -- first point.
 Iteration  1 RMS(Cart)=  0.02648389 RMS(Int)=  0.00021623
 Iteration  2 RMS(Cart)=  0.00035234 RMS(Int)=  0.00000006
 Iteration  3 RMS(Cart)=  0.00000007 RMS(Int)=  0.00000000
 ClnCor:  largest displacement from symmetrization is 1.90D-12 for atom     3.
 Variable       Old X    -DE/DX   Delta X   Delta X   Delta X     New X
                                 (Linear)    (Quad)   (Total)
    R1        2.08526  -0.00340   0.00000  -0.01015  -0.01015   2.07512
    R2        2.32488   0.00920   0.00000   0.01010   0.01010   2.33497
    R3        2.56167  -0.01753   0.00000  -0.03243  -0.03243   2.52923
    R4        3.39133   0.01074   0.00000   0.07496   0.07496   3.46629
    R5        1.91304   0.00158   0.00000   0.00345   0.00345   1.91648
    R6        1.91905  -0.00288   0.00000  -0.00636  -0.00636   1.91269
    A1        2.15465  -0.00540   0.00000  -0.02985  -0.02985   2.12480
    A2        1.97422   0.00121   0.00000   0.01096   0.01096   1.98518
    A3        2.15432   0.00419   0.00000   0.01889   0.01889   2.17321
    A4        2.12781  -0.00247   0.00000  -0.01525  -0.01525   2.11256
    A5        2.12266  -0.00147   0.00000  -0.00908  -0.00908   2.11358
    A6        2.03272   0.00394   0.00000   0.02433   0.02433   2.05705
    A7        3.14488   0.00028   0.00000   0.01186   0.01186   3.15674
    A8        3.14159   0.00000   0.00000   0.00000   0.00000   3.14159
    D1        3.14159   0.00000   0.00000   0.00000   0.00000   3.14159
    D2        0.00000   0.00000   0.00000   0.00000   0.00000   0.00000
    D3        0.00000   0.00000   0.00000   0.00000   0.00000   0.00000
    D4        3.14159   0.00000   0.00000   0.00000   0.00000   3.14159
         Item               Value     Threshold  Converged?
 Maximum Force            0.017529     0.000450     NO 
 RMS     Force            0.005782     0.000300     NO 
 Maximum Displacement     0.076810     0.001800     NO 
 RMS     Displacement     0.026652     0.001200     NO 
 Predicted change in Energy=-9.732856D-04
 GradGradGradGradGradGradGradGradGradGradGradGradGradGradGradGradGradGrad

                          Input orientation:                          
 ---------------------------------------------------------------------
 Center     Atomic      Atomic             Coordinates (Angstroms)
 Number     Number       Type             X           Y           Z
 ---------------------------------------------------------------------
      1          1           0       -1.542753    0.000000    0.223165
      2          6           0       -0.473907    0.000000   -0.028636
      3          8           0       -0.082129    0.000000   -1.200495
      4          7           0        0.331540    0.000000    1.040291
      5          1           0        1.340222    0.000000    0.935028
      6          1           0       -0.046022    0.000000    1.979387
      7          3           0        0.473048    0.000000   -2.948740
 ---------------------------------------------------------------------
                    Distance matrix (angstroms):
                    1          2          3          4          5
     1  H    0.000000
     2  C    1.098105   0.000000
     3  O    2.039664   1.235615   0.000000
     4  N    2.044669   1.338413   2.278650   0.000000
     5  H    2.969561   2.054194   2.565842   1.014159   0.000000
     6  H    2.307493   2.053106   3.180087   1.012153   1.735614
     7  Li   3.758248   3.069810   1.834280   3.991540   3.979402
                    6          7
     6  H    0.000000
     7  Li   4.955388   0.000000
 Stoichiometry    CH3LiNO(1+)
 Framework group  CS[SG(CH3LiNO)]
 Deg. of freedom    11
 Full point group                 CS      NOp   2
 Largest Abelian subgroup         CS      NOp   2
 Largest concise Abelian subgroup C1      NOp   1
                         Standard orientation:                         
 ---------------------------------------------------------------------
 Center     Atomic      Atomic             Coordinates (Angstroms)
 Number     Number       Type             X           Y           Z
 ---------------------------------------------------------------------
      1          1           0        0.319250    1.598377    0.000000
      2          6           0        0.000000    0.547703    0.000000
      3          8           0        0.816422   -0.379766    0.000000
      4          7           0       -1.328885    0.388285    0.000000
      5          1           0       -1.744613   -0.536749    0.000000
      6          1           0       -1.951191    1.186527    0.000000
      7          3           0        2.049124   -1.738083    0.000000
 ---------------------------------------------------------------------
 Rotational constants (GHZ):     50.2267561      5.3524846      4.8370207
 Standard basis: 6-31+G(d) (6D, 7F)
 There are    62 symmetry adapted basis functions of A'  symmetry.
 There are    20 symmetry adapted basis functions of A"  symmetry.
 Integral buffers will be    262144 words long.
 Raffenetti 2 integral format.
 Two-electron integral symmetry is turned on.
    82 basis functions,   140 primitive gaussians,    82 cartesian basis functions
    13 alpha electrons       13 beta electrons
       nuclear repulsion energy        84.9968847823 Hartrees.
 NAtoms=    7 NActive=    7 NUniq=    7 SFac= 7.50D-01 NAtFMM=   80 NAOKFM=F Big=F
 ------------------------------------------------------------------------------
 Polarizable Continuum Model (PCM)
 =================================
 Model                : C-PCM.
 Atomic radii         : UFF (Universal Force Field).
 Polarization charges : Total charges.
 Charge compensation  : None.
 Solution method      : Matrix inversion.
 Cavity type          : Scaled VdW (van der Waals Surface) (Alpha=1.100).
 Cavity algorithm     : GePol (No added spheres)
                        Default sphere list used, NSphG=    7.
                        Lebedev-Laikov grids with approx.  5.0 points / Ang**2.
                        Smoothing algorithm: Karplus/York (Gamma=1.0000).
                        Polarization charges: spherical gaussians, with
                                              point-specific exponents (IZeta= 3).
                        Self-potential: point-specific (ISelfS= 7).
                        Self-field    : sphere-specific E.n sum rule (ISelfD= 2).
 1st derivatives      : Analytical E(r).r(x)/FMM algorithm (CHGder, D1EAlg=3).
                        Cavity 1st derivative terms included.
 Solvent              : Water, Eps=  78.355300 Eps(inf)=   1.777849
 ------------------------------------------------------------------------------
 Spheres list:
 ISph  on   Nord    Re0     Alpha      Xe            Ye            Ze
    1   H      1    1.443   1.100      0.319250      1.598377      0.000000
    2   C      2    1.926   1.100      0.000000      0.547703      0.000000
    3   O      3    1.750   1.100      0.816422     -0.379766      0.000000
    4   N      4    1.830   1.100     -1.328885      0.388285      0.000000
    5   H      5    1.443   1.100     -1.744613     -0.536749      0.000000
    6   H      6    1.443   1.100     -1.951191      1.186527      0.000000
    7  Li      7    1.226   1.100      2.049124     -1.738083      0.000000
 ------------------------------------------------------------------------------
 One-electron integrals computed using PRISM.
 NBasis=    82 RedAO= T  NBF=    62    20
 NBsUse=    82 1.00D-06 NBFU=    62    20
 Initial guess read from the read-write file.
 B after Tr=     0.000000    0.000000    0.000000
         Rot=    1.000000    0.000000    0.000000    0.000000 Ang=   0.00 deg.
 Initial guess orbital symmetries:
       Occupied  (A') (A') (A') (A') (A') (A') (A') (A') (A') (A')
                 (A") (A') (A")
       Virtual   (A") (A') (A') (A') (A") (A') (A') (A') (A") (A')
                 (A') (A") (A') (A') (A') (A") (A') (A') (A") (A')
                 (A') (A') (A') (A") (A') (A') (A') (A') (A') (A")
                 (A') (A") (A') (A") (A') (A') (A') (A") (A') (A')
                 (A') (A') (A') (A") (A') (A') (A') (A') (A") (A')
                 (A") (A') (A") (A') (A") (A') (A') (A') (A') (A")
                 (A') (A') (A") (A') (A') (A') (A') (A') (A')
 Harris functional with IExCor=  402 diagonalized for initial guess.
 ExpMin= 7.40D-03 ExpMax= 5.48D+03 ExpMxC= 8.25D+02 IAcc=3 IRadAn=         0 AccDes= 0.00D+00
 HarFok:  IExCor=  402 AccDes= 0.00D+00 IRadAn=         0 IDoV= 1
 ScaDFX=  1.000000  1.000000  1.000000  1.000000
 FoFCou: FMM=F IPFlag=           0 FMFlag=      100000 FMFlg1=           0
         NFxFlg=           0 DoJE=T BraDBF=F KetDBF=T FulRan=T
         Omega=  0.000000  0.000000  1.000000  0.000000  0.000000 ICntrl=     500 IOpCl=  0
         NMat0=    1 NMatS0=    1 NMatT0=    0 NMatD0=    1 NMtDS0=    0 NMtDT0=    0
         I1Cent=           4 NGrid=           0.
 Petite list used in FoFCou.
 Requested convergence on RMS density matrix=1.00D-08 within 128 cycles.
 Requested convergence on MAX density matrix=1.00D-06.
 Requested convergence on             energy=1.00D-06.
 No special actions if energy rises.
 Keep R1 ints in memory in canonical form, NReq=9429004.
 Error on total polarization charges =  0.00734
 SCF Done:  E(RB3LYP) =  -177.401484615     A.U. after    9 cycles
             Convg  =    0.6749D-08             -V/T =  2.0105
 D1PCM: C-PCM CHGder 1st derivatives, ID1Alg=3 FixD1E=F DoIter=F DoCFld=F I1PDM=0.
 Calling FoFJK, ICntrl=      2127 FMM=F ISym2X=1 I1Cent= 0 IOpClX= 0 NMat=1 NMatS=1 NMatT=0.
 ***** Axes restored to original set *****
 -------------------------------------------------------------------
 Center     Atomic                   Forces (Hartrees/Bohr)
 Number     Number              X              Y              Z
 -------------------------------------------------------------------
      1        1          -0.000706370    0.000000000   -0.001029547
      2        6           0.000653854    0.000000000    0.007994029
      3        8           0.000199181    0.000000000    0.001336787
      4        7          -0.000723360    0.000000000   -0.001827915
      5        1           0.000117544    0.000000000   -0.000599722
      6        1          -0.000436632    0.000000000   -0.000373174
      7        3           0.000895784    0.000000000   -0.005500459
 -------------------------------------------------------------------
 Cartesian Forces:  Max     0.007994029 RMS     0.002218354

 GradGradGradGradGradGradGradGradGradGradGradGradGradGradGradGradGradGrad
 Berny optimization.
 Using GEDIIS/GDIIS optimizer.
 Internal  Forces:  Max     0.005550541 RMS     0.001935235
 Search for a local minimum.
 Step number   2 out of a maximum of   28
 All quantities printed in internal units (Hartrees-Bohrs-Radians)
 Mixed Optimization -- RFO/linear search
 Update second derivatives using D2CorX and points    1    2
 DE= -1.24D-03 DEPred=-9.73D-04 R= 1.27D+00
 SS=  1.41D+00  RLast= 9.67D-02 DXNew= 5.0454D-01 2.8999D-01
 Trust test= 1.27D+00 RLast= 9.67D-02 DXMaxT set to 3.00D-01
 The second derivative matrix:
                          R1        R2        R3        R4        R5
           R1           0.33870
           R2           0.00156   0.88405
           R3           0.01342   0.02823   0.54706
           R4           0.00296  -0.03109   0.03697   0.10392
           R5          -0.00174  -0.00186  -0.00281  -0.00260   0.45630
           R6           0.00330   0.00325   0.00557   0.00458  -0.00089
           A1           0.00341   0.00805   0.00134   0.01046  -0.00067
           A2           0.00303  -0.00834   0.01575  -0.00962  -0.00141
           A3          -0.00343  -0.00789  -0.00155  -0.01027   0.00068
           A4           0.00268   0.00293   0.00425   0.00408  -0.00071
           A5           0.00012   0.00360  -0.00306   0.00442   0.00015
           A6          -0.00280  -0.00653  -0.00119  -0.00849   0.00055
           A7           0.00555  -0.00764   0.02168  -0.00831  -0.00218
           A8           0.00000   0.00000   0.00000   0.00000   0.00000
           D1           0.00000   0.00000   0.00000   0.00000   0.00000
           D2           0.00000   0.00000   0.00000   0.00000   0.00000
           D3           0.00000   0.00000   0.00000   0.00000   0.00000
           D4           0.00000   0.00000   0.00000   0.00000   0.00000
                          R6        A1        A2        A3        A4
           R6           0.45231
           A1           0.00134   0.16010
           A2           0.00258   0.00431   0.15839
           A3          -0.00136  -0.00016  -0.00426   0.25021
           A4           0.00136   0.00101   0.00220  -0.00103   0.16108
           A5          -0.00025  -0.00090   0.00132   0.00087  -0.00024
           A6          -0.00111  -0.00011  -0.00351   0.00016  -0.00084
           A7           0.00404   0.00582  -0.00027  -0.00578   0.00338
           A8           0.00000   0.00000   0.00000   0.00000   0.00000
           D1           0.00000   0.00000   0.00000   0.00000   0.00000
           D2           0.00000   0.00000   0.00000   0.00000   0.00000
           D3           0.00000   0.00000   0.00000   0.00000   0.00000
           D4           0.00000   0.00000   0.00000   0.00000   0.00000
                          A5        A6        A7        A8        D1
           A5           0.15952
           A6           0.00072   0.16011
           A7           0.00137  -0.00475   0.02381
           A8           0.00000   0.00000   0.00000   0.02162
           D1           0.00000   0.00000   0.00000   0.00000   0.02279
           D2           0.00000   0.00000   0.00000   0.00000   0.00000
           D3           0.00000   0.00000   0.00000   0.00000   0.00000
           D4           0.00000   0.00000   0.00000   0.00000   0.00000
                          D2        D3        D4
           D2           0.02279
           D3           0.00000   0.02279
           D4           0.00000   0.00000   0.02279
 Use linear search instead of GDIIS.
     Eigenvalues ---    0.02033   0.02162   0.02279   0.02279   0.02279
     Eigenvalues ---    0.09514   0.15845   0.16000   0.16235   0.22456
     Eigenvalues ---    0.33809   0.45196   0.45638   0.55102   0.88777
     Eigenvalues --- 1000.000001000.000001000.00000
 RFO step:  Lambda=-1.39429605D-03 EMin= 2.03269319D-02
 Quartic linear search produced a step of  1.04666.
 Iteration  1 RMS(Cart)=  0.11623815 RMS(Int)=  0.01076345
 Iteration  2 RMS(Cart)=  0.02223875 RMS(Int)=  0.00034276
 Iteration  3 RMS(Cart)=  0.00037509 RMS(Int)=  0.00000002
 Iteration  4 RMS(Cart)=  0.00000003 RMS(Int)=  0.00000000
 ClnCor:  largest displacement from symmetrization is 1.93D-09 for atom     4.
 Variable       Old X    -DE/DX   Delta X   Delta X   Delta X     New X
                                 (Linear)    (Quad)   (Total)
    R1        2.07512   0.00044  -0.01062   0.00688  -0.00374   2.07138
    R2        2.33497   0.00438   0.01057   0.00429   0.01485   2.34983
    R3        2.52923  -0.00295  -0.03395   0.00482  -0.02912   2.50011
    R4        3.46629   0.00555   0.07845   0.06899   0.14744   3.61373
    R5        1.91648   0.00009   0.00361  -0.00122   0.00239   1.91887
    R6        1.91269  -0.00013  -0.00665   0.00241  -0.00424   1.90845
    A1        2.12480  -0.00150  -0.03125  -0.01157  -0.04282   2.08198
    A2        1.98518   0.00118   0.01147   0.01447   0.02595   2.01112
    A3        2.17321   0.00032   0.01977  -0.00290   0.01687   2.19008
    A4        2.11256  -0.00017  -0.01596   0.00081  -0.01515   2.09741
    A5        2.11358  -0.00058  -0.00950  -0.00563  -0.01514   2.09844
    A6        2.05705   0.00075   0.02547   0.00482   0.03029   2.08734
    A7        3.15674   0.00195   0.01241   0.20133   0.21374   3.37048
    A8        3.14159   0.00000   0.00000   0.00000   0.00000   3.14159
    D1        3.14159   0.00000   0.00000   0.00000   0.00000   3.14159
    D2        0.00000   0.00000   0.00000   0.00000   0.00000   0.00000
    D3        0.00000   0.00000   0.00000   0.00000   0.00000   0.00000
    D4        3.14159   0.00000   0.00000   0.00000   0.00000   3.14159
         Item               Value     Threshold  Converged?
 Maximum Force            0.005551     0.000450     NO 
 RMS     Force            0.001935     0.000300     NO 
 Maximum Displacement     0.315412     0.001800     NO 
 RMS     Displacement     0.133941     0.001200     NO 
 Predicted change in Energy=-1.756899D-04
 GradGradGradGradGradGradGradGradGradGradGradGradGradGradGradGradGradGrad

                          Input orientation:                          
 ---------------------------------------------------------------------
 Center     Atomic      Atomic             Coordinates (Angstroms)
 Number     Number       Type             X           Y           Z
 ---------------------------------------------------------------------
      1          1           0       -1.488718    0.000000    0.143065
      2          6           0       -0.403933    0.000000   -0.014214
      3          8           0        0.042484    0.000000   -1.174792
      4          7           0        0.325865    0.000000    1.089293
      5          1           0        1.339598    0.000000    1.030739
      6          1           0       -0.121435    0.000000    1.994741
      7          3           0        0.306140    0.000000   -3.068833
 ---------------------------------------------------------------------
                    Distance matrix (angstroms):
                    1          2          3          4          5
     1  H    0.000000
     2  C    1.096127   0.000000
     3  O    2.020229   1.243475   0.000000
     4  N    2.046475   1.323001   2.281751   0.000000
     5  H    2.964345   2.032690   2.558686   1.015423   0.000000
     6  H    2.301776   2.028720   3.173769   1.009907   1.750405
     7  Li   3.679375   3.136065   1.912304   4.158173   4.227828
                    6          7
     6  H    0.000000
     7  Li   5.081595   0.000000
 Stoichiometry    CH3LiNO(1+)
 Framework group  CS[SG(CH3LiNO)]
 Deg. of freedom    11
 Full point group                 CS      NOp   2
 Largest Abelian subgroup         CS      NOp   2
 Largest concise Abelian subgroup C1      NOp   1
                         Standard orientation:                         
 ---------------------------------------------------------------------
 Center     Atomic      Atomic             Coordinates (Angstroms)
 Number     Number       Type             X           Y           Z
 ---------------------------------------------------------------------
      1          1           0        0.451795    1.515266    0.000000
      2          6           0        0.000000    0.516579    0.000000
      3          8           0        0.737371   -0.484677    0.000000
      4          7           0       -1.322843    0.496090    0.000000
      5          1           0       -1.819546   -0.389556    0.000000
      6          1           0       -1.844782    1.360666    0.000000
      7          3           0        2.191154   -1.727022    0.000000
 ---------------------------------------------------------------------
 Rotational constants (GHZ):     62.4923982      5.0270332      4.6527549
 Standard basis: 6-31+G(d) (6D, 7F)
 There are    62 symmetry adapted basis functions of A'  symmetry.
 There are    20 symmetry adapted basis functions of A"  symmetry.
 Integral buffers will be    262144 words long.
 Raffenetti 2 integral format.
 Two-electron integral symmetry is turned on.
    82 basis functions,   140 primitive gaussians,    82 cartesian basis functions
    13 alpha electrons       13 beta electrons
       nuclear repulsion energy        84.6284334797 Hartrees.
 NAtoms=    7 NActive=    7 NUniq=    7 SFac= 7.50D-01 NAtFMM=   80 NAOKFM=F Big=F
 ------------------------------------------------------------------------------
 Polarizable Continuum Model (PCM)
 =================================
 Model                : C-PCM.
 Atomic radii         : UFF (Universal Force Field).
 Polarization charges : Total charges.
 Charge compensation  : None.
 Solution method      : Matrix inversion.
 Cavity type          : Scaled VdW (van der Waals Surface) (Alpha=1.100).
 Cavity algorithm     : GePol (No added spheres)
                        Default sphere list used, NSphG=    7.
                        Lebedev-Laikov grids with approx.  5.0 points / Ang**2.
                        Smoothing algorithm: Karplus/York (Gamma=1.0000).
                        Polarization charges: spherical gaussians, with
                                              point-specific exponents (IZeta= 3).
                        Self-potential: point-specific (ISelfS= 7).
                        Self-field    : sphere-specific E.n sum rule (ISelfD= 2).
 1st derivatives      : Analytical E(r).r(x)/FMM algorithm (CHGder, D1EAlg=3).
                        Cavity 1st derivative terms included.
 Solvent              : Water, Eps=  78.355300 Eps(inf)=   1.777849
 ------------------------------------------------------------------------------
 Spheres list:
 ISph  on   Nord    Re0     Alpha      Xe            Ye            Ze
    1   H      1    1.443   1.100      0.451795      1.515266      0.000000
    2   C      2    1.926   1.100      0.000000      0.516579      0.000000
    3   O      3    1.750   1.100      0.737371     -0.484677      0.000000
    4   N      4    1.830   1.100     -1.322843      0.496090      0.000000
    5   H      5    1.443   1.100     -1.819546     -0.389556      0.000000
    6   H      6    1.443   1.100     -1.844782      1.360666      0.000000
    7  Li      7    1.226   1.100      2.191154     -1.727022      0.000000
 ------------------------------------------------------------------------------
 One-electron integrals computed using PRISM.
 NBasis=    82 RedAO= T  NBF=    62    20
 NBsUse=    82 1.00D-06 NBFU=    62    20
 Initial guess read from the read-write file.
 B after Tr=     0.000000    0.000000    0.000000
         Rot=    1.000000    0.000000    0.000000    0.000000 Ang=   0.00 deg.
 Initial guess orbital symmetries:
       Occupied  (A') (A') (A') (A') (A') (A') (A') (A') (A') (A')
                 (A") (A") (A')
       Virtual   (A") (A') (A') (A') (A") (A') (A') (A') (A") (A')
                 (A') (A") (A') (A') (A') (A") (A') (A') (A") (A')
                 (A') (A') (A') (A") (A') (A') (A') (A') (A') (A")
                 (A') (A") (A') (A") (A') (A') (A') (A") (A') (A')
                 (A') (A') (A') (A") (A') (A') (A') (A') (A") (A')
                 (A") (A') (A") (A') (A") (A') (A') (A') (A') (A")
                 (A') (A') (A") (A') (A') (A') (A') (A') (A')
 Harris functional with IExCor=  402 diagonalized for initial guess.
 ExpMin= 7.40D-03 ExpMax= 5.48D+03 ExpMxC= 8.25D+02 IAcc=3 IRadAn=         0 AccDes= 0.00D+00
 HarFok:  IExCor=  402 AccDes= 0.00D+00 IRadAn=         0 IDoV= 1
 ScaDFX=  1.000000  1.000000  1.000000  1.000000
 FoFCou: FMM=F IPFlag=           0 FMFlag=      100000 FMFlg1=           0
         NFxFlg=           0 DoJE=T BraDBF=F KetDBF=T FulRan=T
         Omega=  0.000000  0.000000  1.000000  0.000000  0.000000 ICntrl=     500 IOpCl=  0
         NMat0=    1 NMatS0=    1 NMatT0=    0 NMatD0=    1 NMtDS0=    0 NMtDT0=    0
         I1Cent=           4 NGrid=           0.
 Petite list used in FoFCou.
 Requested convergence on RMS density matrix=1.00D-08 within 128 cycles.
 Requested convergence on MAX density matrix=1.00D-06.
 Requested convergence on             energy=1.00D-06.
 No special actions if energy rises.
 Keep R1 ints in memory in canonical form, NReq=9470315.
 Error on total polarization charges =  0.00748
 SCF Done:  E(RB3LYP) =  -177.401472371     A.U. after    9 cycles
             Convg  =    0.8961D-08             -V/T =  2.0105
 D1PCM: C-PCM CHGder 1st derivatives, ID1Alg=3 FixD1E=F DoIter=F DoCFld=F I1PDM=0.
 Calling FoFJK, ICntrl=      2127 FMM=F ISym2X=1 I1Cent= 0 IOpClX= 0 NMat=1 NMatS=1 NMatT=0.
 ***** Axes restored to original set *****
 -------------------------------------------------------------------
 Center     Atomic                   Forces (Hartrees/Bohr)
 Number     Number              X              Y              Z
 -------------------------------------------------------------------
      1        1          -0.001282349    0.000000000    0.003418084
      2        6          -0.009829772    0.000000000   -0.016644267
      3        8           0.002840542    0.000000000    0.003431731
      4        7           0.006940965    0.000000000    0.003473779
      5        1          -0.000708107    0.000000000    0.002300506
      6        1           0.001148192    0.000000000    0.002712652
      7        3           0.000890529    0.000000000    0.001307516
 -------------------------------------------------------------------
 Cartesian Forces:  Max     0.016644267 RMS     0.004801024

 GradGradGradGradGradGradGradGradGradGradGradGradGradGradGradGradGradGrad
 Berny optimization.
 Using GEDIIS/GDIIS optimizer.
 Internal  Forces:  Max     0.011290506 RMS     0.003726496
 Search for a local minimum.
 Step number   3 out of a maximum of   28
 All quantities printed in internal units (Hartrees-Bohrs-Radians)
 Mixed Optimization -- RFO/linear search
 Update second derivatives using D2CorX and points    1    3    2
 DE=  1.22D-05 DEPred=-1.76D-04 R=-6.97D-02
 Trust test=-6.97D-02 RLast= 2.70D-01 DXMaxT set to 1.50D-01
 The second derivative matrix:
                          R1        R2        R3        R4        R5
           R1           0.33924
           R2          -0.00117   0.89320
           R3           0.01897   0.00313   0.60219
           R4           0.00120  -0.03476   0.02692   0.07587
           R5          -0.00204  -0.00060  -0.00570  -0.00225   0.45645
           R6           0.00407  -0.00043   0.01334   0.00266  -0.00130
           A1           0.00651  -0.00475   0.03139   0.00820  -0.00222
           A2           0.00254  -0.00759   0.01182  -0.01269  -0.00123
           A3          -0.00614   0.00600  -0.02956  -0.00107   0.00217
           A4           0.00308   0.00224   0.00750   0.00633  -0.00086
           A5           0.00104  -0.00008   0.00573   0.00398  -0.00030
           A6          -0.00412  -0.00215  -0.01323  -0.01031   0.00116
           A7           0.00401  -0.00204   0.00728  -0.00916  -0.00145
           A8           0.00000   0.00000   0.00000   0.00000   0.00000
           D1           0.00000   0.00000   0.00000   0.00000   0.00000
           D2           0.00000   0.00000   0.00000   0.00000   0.00000
           D3           0.00000   0.00000   0.00000   0.00000   0.00000
           D4           0.00000   0.00000   0.00000   0.00000   0.00000
                          R6        A1        A2        A3        A4
           R6           0.45340
           A1           0.00563   0.17614
           A2           0.00196   0.00257   0.15819
           A3          -0.00524  -0.01587  -0.00174   0.26389
           A4           0.00186   0.00247   0.00232  -0.00307   0.16100
           A5           0.00101   0.00377   0.00084  -0.00375   0.00017
           A6          -0.00287  -0.00624  -0.00316   0.00682  -0.00116
           A7           0.00195  -0.00166   0.00032   0.00202   0.00286
           A8           0.00000   0.00000   0.00000   0.00000   0.00000
           D1           0.00000   0.00000   0.00000   0.00000   0.00000
           D2           0.00000   0.00000   0.00000   0.00000   0.00000
           D3           0.00000   0.00000   0.00000   0.00000   0.00000
           D4           0.00000   0.00000   0.00000   0.00000   0.00000
                          A5        A6        A7        A8        D1
           A5           0.16087
           A6          -0.00104   0.16220
           A7          -0.00079  -0.00207   0.02716
           A8           0.00000   0.00000   0.00000   0.02162
           D1           0.00000   0.00000   0.00000   0.00000   0.02279
           D2           0.00000   0.00000   0.00000   0.00000   0.00000
           D3           0.00000   0.00000   0.00000   0.00000   0.00000
           D4           0.00000   0.00000   0.00000   0.00000   0.00000
                          D2        D3        D4
           D2           0.02279
           D3           0.00000   0.02279
           D4           0.00000   0.00000   0.02279
 Use linear search instead of GDIIS.
 Quartic linear search produced a step of -0.50071.
 Iteration  1 RMS(Cart)=  0.06724719 RMS(Int)=  0.00313993
 Iteration  2 RMS(Cart)=  0.00325994 RMS(Int)=  0.00000101
 Iteration  3 RMS(Cart)=  0.00000221 RMS(Int)=  0.00000000
 Iteration  4 RMS(Cart)=  0.00000000 RMS(Int)=  0.00000000
 ClnCor:  largest displacement from symmetrization is 2.66D-11 for atom     4.
 Variable       Old X    -DE/DX   Delta X   Delta X   Delta X     New X
                                 (Linear)    (Quad)   (Total)
    R1        2.07138   0.00177   0.00187   0.00000   0.00187   2.07325
    R2        2.34983  -0.00325  -0.00744   0.00000  -0.00744   2.34239
    R3        2.50011   0.01129   0.01458   0.00000   0.01458   2.51469
    R4        3.61373  -0.00119  -0.07383   0.00000  -0.07383   3.53990
    R5        1.91887  -0.00068  -0.00120   0.00000  -0.00120   1.91768
    R6        1.90845   0.00181   0.00213   0.00000   0.00213   1.91057
    A1        2.08198   0.00671   0.02144   0.00000   0.02144   2.10342
    A2        2.01112  -0.00036  -0.01299   0.00000  -0.01299   1.99813
    A3        2.19008  -0.00635  -0.00845   0.00000  -0.00845   2.18163
    A4        2.09741   0.00107   0.00759   0.00000   0.00759   2.10499
    A5        2.09844   0.00185   0.00758   0.00000   0.00758   2.10602
    A6        2.08734  -0.00291  -0.01517   0.00000  -0.01517   2.07217
    A7        3.37048  -0.00225  -0.10702   0.00000  -0.10702   3.26346
    A8        3.14159   0.00000   0.00000   0.00000   0.00000   3.14159
    D1        3.14159   0.00000   0.00000   0.00000   0.00000   3.14159
    D2        0.00000   0.00000   0.00000   0.00000   0.00000   0.00000
    D3        0.00000   0.00000   0.00000   0.00000   0.00000   0.00000
    D4        3.14159   0.00000   0.00000   0.00000   0.00000   3.14159
         Item               Value     Threshold  Converged?
 Maximum Force            0.011291     0.000450     NO 
 RMS     Force            0.003726     0.000300     NO 
 Maximum Displacement     0.162703     0.001800     NO 
 RMS     Displacement     0.067150     0.001200     NO 
 Predicted change in Energy=-3.922391D-04
 GradGradGradGradGradGradGradGradGradGradGradGradGradGradGradGradGradGrad

                          Input orientation:                          
 ---------------------------------------------------------------------
 Center     Atomic      Atomic             Coordinates (Angstroms)
 Number     Number       Type             X           Y           Z
 ---------------------------------------------------------------------
      1          1           0       -1.517304    0.000000    0.184661
      2          6           0       -0.439572    0.000000   -0.020670
      3          8           0       -0.021111    0.000000   -1.187439
      4          7           0        0.328850    0.000000    1.065763
      5          1           0        1.340280    0.000000    0.983248
      6          1           0       -0.083382    0.000000    1.988937
      7          3           0        0.392238    0.000000   -3.014501
 ---------------------------------------------------------------------
                    Distance matrix (angstroms):
                    1          2          3          4          5
     1  H    0.000000
     2  C    1.097118   0.000000
     3  O    2.030086   1.239539   0.000000
     4  N    2.045636   1.330718   2.280218   0.000000
     5  H    2.967074   2.043459   2.562278   1.014790   0.000000
     6  H    2.304678   2.040930   3.176986   1.011032   1.743050
     7  Li   3.725720   3.107238   1.873236   4.080757   4.108623
                    6          7
     6  H    0.000000
     7  Li   5.025993   0.000000
 Stoichiometry    CH3LiNO(1+)
 Framework group  CS[SG(CH3LiNO)]
 Deg. of freedom    11
 Full point group                 CS      NOp   2
 Largest Abelian subgroup         CS      NOp   2
 Largest concise Abelian subgroup C1      NOp   1
                         Standard orientation:                         
 ---------------------------------------------------------------------
 Center     Atomic      Atomic             Coordinates (Angstroms)
 Number     Number       Type             X           Y           Z
 ---------------------------------------------------------------------
      1          1           0        0.385990    1.559761    0.000000
      2          6           0        0.000000    0.532785    0.000000
      3          8           0        0.778116   -0.432094    0.000000
      4          7           0       -1.327659    0.442607    0.000000
      5          1           0       -1.783965   -0.463806    0.000000
      6          1           0       -1.901067    1.275307    0.000000
      7          3           0        2.122575   -1.736489    0.000000
 ---------------------------------------------------------------------
 Rotational constants (GHZ):     56.1907197      5.1731730      4.7370580
 Standard basis: 6-31+G(d) (6D, 7F)
 There are    62 symmetry adapted basis functions of A'  symmetry.
 There are    20 symmetry adapted basis functions of A"  symmetry.
 Integral buffers will be    262144 words long.
 Raffenetti 2 integral format.
 Two-electron integral symmetry is turned on.
    82 basis functions,   140 primitive gaussians,    82 cartesian basis functions
    13 alpha electrons       13 beta electrons
       nuclear repulsion energy        84.7966810641 Hartrees.
 NAtoms=    7 NActive=    7 NUniq=    7 SFac= 7.50D-01 NAtFMM=   80 NAOKFM=F Big=F
 ------------------------------------------------------------------------------
 Polarizable Continuum Model (PCM)
 =================================
 Model                : C-PCM.
 Atomic radii         : UFF (Universal Force Field).
 Polarization charges : Total charges.
 Charge compensation  : None.
 Solution method      : Matrix inversion.
 Cavity type          : Scaled VdW (van der Waals Surface) (Alpha=1.100).
 Cavity algorithm     : GePol (No added spheres)
                        Default sphere list used, NSphG=    7.
                        Lebedev-Laikov grids with approx.  5.0 points / Ang**2.
                        Smoothing algorithm: Karplus/York (Gamma=1.0000).
                        Polarization charges: spherical gaussians, with
                                              point-specific exponents (IZeta= 3).
                        Self-potential: point-specific (ISelfS= 7).
                        Self-field    : sphere-specific E.n sum rule (ISelfD= 2).
 1st derivatives      : Analytical E(r).r(x)/FMM algorithm (CHGder, D1EAlg=3).
                        Cavity 1st derivative terms included.
 Solvent              : Water, Eps=  78.355300 Eps(inf)=   1.777849
 ------------------------------------------------------------------------------
 Spheres list:
 ISph  on   Nord    Re0     Alpha      Xe            Ye            Ze
    1   H      1    1.443   1.100      0.385990      1.559761      0.000000
    2   C      2    1.925   1.100      0.000000      0.532785      0.000000
    3   O      3    1.750   1.100      0.778116     -0.432094      0.000000
    4   N      4    1.830   1.100     -1.327659      0.442607      0.000000
    5   H      5    1.443   1.100     -1.783965     -0.463806      0.000000
    6   H      6    1.443   1.100     -1.901067      1.275307      0.000000
    7  Li      7    1.226   1.100      2.122575     -1.736489      0.000000
 ------------------------------------------------------------------------------
 One-electron integrals computed using PRISM.
 NBasis=    82 RedAO= T  NBF=    62    20
 NBsUse=    82 1.00D-06 NBFU=    62    20
 Initial guess read from the read-write file.
 B after Tr=     0.000000    0.000000    0.000000
         Rot=    1.000000    0.000000    0.000000    0.000000 Ang=   0.00 deg.
 Initial guess orbital symmetries:
       Occupied  (A') (A') (A') (A') (A') (A') (A') (A') (A') (A')
                 (A") (A") (A')
       Virtual   (A") (A') (A') (A') (A") (A') (A') (A') (A") (A')
                 (A') (A") (A') (A') (A') (A") (A') (A') (A") (A')
                 (A') (A') (A') (A") (A') (A') (A') (A') (A') (A")
                 (A') (A") (A') (A") (A') (A') (A') (A') (A") (A')
                 (A') (A') (A') (A") (A') (A') (A') (A') (A") (A')
                 (A") (A') (A") (A') (A") (A') (A') (A') (A') (A")
                 (A') (A') (A") (A') (A') (A') (A') (A') (A')
 Harris functional with IExCor=  402 diagonalized for initial guess.
 ExpMin= 7.40D-03 ExpMax= 5.48D+03 ExpMxC= 8.25D+02 IAcc=3 IRadAn=         0 AccDes= 0.00D+00
 HarFok:  IExCor=  402 AccDes= 0.00D+00 IRadAn=         0 IDoV= 1
 ScaDFX=  1.000000  1.000000  1.000000  1.000000
 FoFCou: FMM=F IPFlag=           0 FMFlag=      100000 FMFlg1=           0
         NFxFlg=           0 DoJE=T BraDBF=F KetDBF=T FulRan=T
         Omega=  0.000000  0.000000  1.000000  0.000000  0.000000 ICntrl=     500 IOpCl=  0
         NMat0=    1 NMatS0=    1 NMatT0=    0 NMatD0=    1 NMtDS0=    0 NMtDT0=    0
         I1Cent=           4 NGrid=           0.
 Petite list used in FoFCou.
 Requested convergence on RMS density matrix=1.00D-08 within 128 cycles.
 Requested convergence on MAX density matrix=1.00D-06.
 Requested convergence on             energy=1.00D-06.
 No special actions if energy rises.
 Keep R1 ints in memory in canonical form, NReq=9450413.
 Error on total polarization charges =  0.00747
 SCF Done:  E(RB3LYP) =  -177.401875007     A.U. after    9 cycles
             Convg  =    0.4537D-08             -V/T =  2.0105
 D1PCM: C-PCM CHGder 1st derivatives, ID1Alg=3 FixD1E=F DoIter=F DoCFld=F I1PDM=0.
 Calling FoFJK, ICntrl=      2127 FMM=F ISym2X=1 I1Cent= 0 IOpClX= 0 NMat=1 NMatS=1 NMatT=0.
 ***** Axes restored to original set *****
 -------------------------------------------------------------------
 Center     Atomic                   Forces (Hartrees/Bohr)
 Number     Number              X              Y              Z
 -------------------------------------------------------------------
      1        1          -0.000835896    0.000000000    0.001066686
      2        6          -0.004751418    0.000000000   -0.004207543
      3        8           0.001672790    0.000000000    0.002589259
      4        7           0.003045693    0.000000000    0.000656849
      5        1          -0.000276613    0.000000000    0.000883611
      6        1           0.000428659    0.000000000    0.001101252
      7        3           0.000716785    0.000000000   -0.002090115
 -------------------------------------------------------------------
 Cartesian Forces:  Max     0.004751418 RMS     0.001805577

 GradGradGradGradGradGradGradGradGradGradGradGradGradGradGradGradGradGrad
 Berny optimization.
 Using GEDIIS/GDIIS optimizer.
 Internal  Forces:  Max     0.004054369 RMS     0.001500862
 Search for a local minimum.
 Step number   4 out of a maximum of   28
 All quantities printed in internal units (Hartrees-Bohrs-Radians)
 Mixed Optimization -- RFO/linear search
 Update second derivatives using D2CorX and points    1    3    2    4
 The second derivative matrix:
                          R1        R2        R3        R4        R5
           R1           0.33842
           R2          -0.00028   0.89508
           R3           0.01375   0.00527   0.57847
           R4          -0.00077  -0.03240   0.02051   0.07582
           R5          -0.00176  -0.00073  -0.00406  -0.00144   0.45636
           R6           0.00319   0.00018   0.00889   0.00140  -0.00101
           A1           0.00410  -0.00402   0.02222   0.00783  -0.00147
           A2           0.00262  -0.00775   0.01217  -0.01361  -0.00126
           A3          -0.00331   0.00508  -0.01888   0.00048   0.00127
           A4           0.00296   0.00232   0.00603   0.00537  -0.00084
           A5           0.00050  -0.00036   0.00424   0.00373  -0.00016
           A6          -0.00346  -0.00196  -0.01027  -0.00910   0.00099
           A7           0.00444  -0.00064   0.00574  -0.01055  -0.00151
           A8           0.00000   0.00000   0.00000   0.00000   0.00000
           D1           0.00000   0.00000   0.00000   0.00000   0.00000
           D2           0.00000   0.00000   0.00000   0.00000   0.00000
           D3           0.00000   0.00000   0.00000   0.00000   0.00000
           D4           0.00000   0.00000   0.00000   0.00000   0.00000
                          R6        A1        A2        A3        A4
           R6           0.45260
           A1           0.00379   0.17302
           A2           0.00202   0.00283   0.15802
           A3          -0.00311  -0.01258  -0.00174   0.25995
           A4           0.00164   0.00149   0.00245  -0.00202   0.16108
           A5           0.00066   0.00341   0.00087  -0.00334  -0.00003
           A6          -0.00229  -0.00490  -0.00332   0.00537  -0.00104
           A7           0.00192  -0.00311   0.00032   0.00377   0.00321
           A8           0.00000   0.00000   0.00000   0.00000   0.00000
           D1           0.00000   0.00000   0.00000   0.00000   0.00000
           D2           0.00000   0.00000   0.00000   0.00000   0.00000
           D3           0.00000   0.00000   0.00000   0.00000   0.00000
           D4           0.00000   0.00000   0.00000   0.00000   0.00000
                          A5        A6        A7        A8        D1
           A5           0.16093
           A6          -0.00089   0.16193
           A7          -0.00141  -0.00180   0.02893
           A8           0.00000   0.00000   0.00000   0.02162
           D1           0.00000   0.00000   0.00000   0.00000   0.02279
           D2           0.00000   0.00000   0.00000   0.00000   0.00000
           D3           0.00000   0.00000   0.00000   0.00000   0.00000
           D4           0.00000   0.00000   0.00000   0.00000   0.00000
                          D2        D3        D4
           D2           0.02279
           D3           0.00000   0.02279
           D4           0.00000   0.00000   0.02279
 Use linear search instead of GDIIS.
     Eigenvalues ---    0.02162   0.02279   0.02279   0.02279   0.02595
     Eigenvalues ---    0.07233   0.15996   0.16232   0.16544   0.23839
     Eigenvalues ---    0.33784   0.45194   0.45639   0.58416   0.89655
     Eigenvalues --- 1000.000001000.000001000.00000
 RFO step:  Lambda=-1.50949056D-04 EMin= 2.16176405D-02
 Quartic linear search produced a step of -0.03274.
 Iteration  1 RMS(Cart)=  0.00996015 RMS(Int)=  0.00002599
 Iteration  2 RMS(Cart)=  0.00005345 RMS(Int)=  0.00000000
 Iteration  3 RMS(Cart)=  0.00000000 RMS(Int)=  0.00000000
 ClnCor:  largest displacement from symmetrization is 4.30D-11 for atom     3.
 Variable       Old X    -DE/DX   Delta X   Delta X   Delta X     New X
                                 (Linear)    (Quad)   (Total)
    R1        2.07325   0.00103   0.00006   0.00249   0.00255   2.07581
    R2        2.34239   0.00028  -0.00024   0.00164   0.00140   2.34379
    R3        2.51469   0.00405   0.00048   0.00454   0.00502   2.51971
    R4        3.53990   0.00218  -0.00241   0.02962   0.02721   3.56711
    R5        1.91768  -0.00029  -0.00004  -0.00037  -0.00041   1.91726
    R6        1.91057   0.00079   0.00007   0.00128   0.00135   1.91192
    A1        2.10342   0.00250   0.00070   0.00871   0.00941   2.11283
    A2        1.99813   0.00050  -0.00042   0.00296   0.00253   2.00066
    A3        2.18163  -0.00300  -0.00028  -0.01167  -0.01194   2.16969
    A4        2.10499   0.00042   0.00025   0.00088   0.00112   2.10612
    A5        2.10602   0.00068   0.00025   0.00270   0.00295   2.10897
    A6        2.07217  -0.00110  -0.00050  -0.00358  -0.00407   2.06810
    A7        3.26346  -0.00031  -0.00349   0.00441   0.00091   3.26437
    A8        3.14159   0.00000   0.00000   0.00000   0.00000   3.14159
    D1        3.14159   0.00000   0.00000   0.00000   0.00000   3.14159
    D2        0.00000   0.00000   0.00000   0.00000   0.00000   0.00000
    D3        0.00000   0.00000   0.00000   0.00000   0.00000   0.00000
    D4        3.14159   0.00000   0.00000   0.00000   0.00000   3.14159
         Item               Value     Threshold  Converged?
 Maximum Force            0.004054     0.000450     NO 
 RMS     Force            0.001501     0.000300     NO 
 Maximum Displacement     0.021745     0.001800     NO 
 RMS     Displacement     0.009980     0.001200     NO 
 Predicted change in Energy=-7.551378D-05
 GradGradGradGradGradGradGradGradGradGradGradGradGradGradGradGradGradGrad

                          Input orientation:                          
 ---------------------------------------------------------------------
 Center     Atomic      Atomic             Coordinates (Angstroms)
 Number     Number       Type             X           Y           Z
 ---------------------------------------------------------------------
      1          1           0       -1.526164    0.000000    0.190349
      2          6           0       -0.447815    0.000000   -0.018929
      3          8           0       -0.022121    0.000000   -1.183866
      4          7           0        0.328612    0.000000    1.065068
      5          1           0        1.339414    0.000000    0.977685
      6          1           0       -0.075671    0.000000    1.992528
      7          3           0        0.403745    0.000000   -3.022835
 ---------------------------------------------------------------------
                    Distance matrix (angstroms):
                    1          2          3          4          5
     1  H    0.000000
     2  C    1.098469   0.000000
     3  O    2.037304   1.240279   0.000000
     4  N    2.050689   1.333374   2.276118   0.000000
     5  H    2.971773   2.046320   2.554620   1.014572   0.000000
     6  H    2.313391   2.045593   3.176845   1.011745   1.741370
     7  Li   3.748213   3.122275   1.887636   4.088593   4.108483
                    6          7
     6  H    0.000000
     7  Li   5.038224   0.000000
 Stoichiometry    CH3LiNO(1+)
 Framework group  CS[SG(CH3LiNO)]
 Deg. of freedom    11
 Full point group                 CS      NOp   2
 Largest Abelian subgroup         CS      NOp   2
 Largest concise Abelian subgroup C1      NOp   1
                         Standard orientation:                         
 ---------------------------------------------------------------------
 Center     Atomic      Atomic             Coordinates (Angstroms)
 Number     Number       Type             X           Y           Z
 ---------------------------------------------------------------------
      1          1           0        0.377789    1.571103    0.000000
      2          6           0        0.000000    0.539643    0.000000
      3          8           0        0.777627   -0.426581    0.000000
      4          7           0       -1.329239    0.434714    0.000000
      5          1           0       -1.776516   -0.475945    0.000000
      6          1           0       -1.914580    1.259943    0.000000
      7          3           0        2.132322   -1.741104    0.000000
 ---------------------------------------------------------------------
 Rotational constants (GHZ):     55.1680039      5.1614063      4.7198287
 Standard basis: 6-31+G(d) (6D, 7F)
 There are    62 symmetry adapted basis functions of A'  symmetry.
 There are    20 symmetry adapted basis functions of A"  symmetry.
 Integral buffers will be    262144 words long.
 Raffenetti 2 integral format.
 Two-electron integral symmetry is turned on.
    82 basis functions,   140 primitive gaussians,    82 cartesian basis functions
    13 alpha electrons       13 beta electrons
       nuclear repulsion energy        84.6808203150 Hartrees.
 NAtoms=    7 NActive=    7 NUniq=    7 SFac= 7.50D-01 NAtFMM=   80 NAOKFM=F Big=F
 ------------------------------------------------------------------------------
 Polarizable Continuum Model (PCM)
 =================================
 Model                : C-PCM.
 Atomic radii         : UFF (Universal Force Field).
 Polarization charges : Total charges.
 Charge compensation  : None.
 Solution method      : Matrix inversion.
 Cavity type          : Scaled VdW (van der Waals Surface) (Alpha=1.100).
 Cavity algorithm     : GePol (No added spheres)
                        Default sphere list used, NSphG=    7.
                        Lebedev-Laikov grids with approx.  5.0 points / Ang**2.
                        Smoothing algorithm: Karplus/York (Gamma=1.0000).
                        Polarization charges: spherical gaussians, with
                                              point-specific exponents (IZeta= 3).
                        Self-potential: point-specific (ISelfS= 7).
                        Self-field    : sphere-specific E.n sum rule (ISelfD= 2).
 1st derivatives      : Analytical E(r).r(x)/FMM algorithm (CHGder, D1EAlg=3).
                        Cavity 1st derivative terms included.
 Solvent              : Water, Eps=  78.355300 Eps(inf)=   1.777849
 ------------------------------------------------------------------------------
 Spheres list:
 ISph  on   Nord    Re0     Alpha      Xe            Ye            Ze
    1   H      1    1.443   1.100      0.377789      1.571103      0.000000
    2   C      2    1.925   1.100      0.000000      0.539643      0.000000
    3   O      3    1.750   1.100      0.777627     -0.426581      0.000000
    4   N      4    1.830   1.100     -1.329239      0.434714      0.000000
    5   H      5    1.443   1.100     -1.776516     -0.475945      0.000000
    6   H      6    1.443   1.100     -1.914580      1.259943      0.000000
    7  Li      7    1.226   1.100      2.132322     -1.741104      0.000000
 ------------------------------------------------------------------------------
 One-electron integrals computed using PRISM.
 NBasis=    82 RedAO= T  NBF=    62    20
 NBsUse=    82 1.00D-06 NBFU=    62    20
 Initial guess read from the read-write file.
 B after Tr=     0.000000    0.000000    0.000000
         Rot=    1.000000    0.000000    0.000000    0.000000 Ang=   0.00 deg.
 Initial guess orbital symmetries:
       Occupied  (A') (A') (A') (A') (A') (A') (A') (A') (A') (A')
                 (A") (A") (A')
       Virtual   (A") (A') (A') (A') (A") (A') (A') (A') (A") (A')
                 (A') (A") (A') (A') (A') (A") (A') (A') (A") (A')
                 (A') (A') (A') (A") (A') (A') (A') (A') (A') (A")
                 (A') (A") (A') (A") (A') (A') (A') (A') (A") (A')
                 (A') (A') (A') (A") (A') (A') (A') (A') (A") (A')
                 (A") (A') (A") (A') (A") (A') (A') (A') (A') (A")
                 (A') (A') (A") (A') (A') (A') (A') (A') (A')
 Harris functional with IExCor=  402 diagonalized for initial guess.
 ExpMin= 7.40D-03 ExpMax= 5.48D+03 ExpMxC= 8.25D+02 IAcc=3 IRadAn=         0 AccDes= 0.00D+00
 HarFok:  IExCor=  402 AccDes= 0.00D+00 IRadAn=         0 IDoV= 1
 ScaDFX=  1.000000  1.000000  1.000000  1.000000
 FoFCou: FMM=F IPFlag=           0 FMFlag=      100000 FMFlg1=           0
         NFxFlg=           0 DoJE=T BraDBF=F KetDBF=T FulRan=T
         Omega=  0.000000  0.000000  1.000000  0.000000  0.000000 ICntrl=     500 IOpCl=  0
         NMat0=    1 NMatS0=    1 NMatT0=    0 NMatD0=    1 NMtDS0=    0 NMtDT0=    0
         I1Cent=           4 NGrid=           0.
 Petite list used in FoFCou.
 Requested convergence on RMS density matrix=1.00D-08 within 128 cycles.
 Requested convergence on MAX density matrix=1.00D-06.
 Requested convergence on             energy=1.00D-06.
 No special actions if energy rises.
 Keep R1 ints in memory in canonical form, NReq=9446962.
 Error on total polarization charges =  0.00752
 SCF Done:  E(RB3LYP) =  -177.401962616     A.U. after    9 cycles
             Convg  =    0.1049D-08             -V/T =  2.0106
 D1PCM: C-PCM CHGder 1st derivatives, ID1Alg=3 FixD1E=F DoIter=F DoCFld=F I1PDM=0.
 Calling FoFJK, ICntrl=      2127 FMM=F ISym2X=1 I1Cent= 0 IOpClX= 0 NMat=1 NMatS=1 NMatT=0.
 ***** Axes restored to original set *****
 -------------------------------------------------------------------
 Center     Atomic                   Forces (Hartrees/Bohr)
 Number     Number              X              Y              Z
 -------------------------------------------------------------------
      1        1           0.000156656    0.000000000    0.000451290
      2        6          -0.000778654    0.000000000   -0.003334975
      3        8          -0.000464377    0.000000000    0.001936662
      4        7           0.000450471    0.000000000    0.000990639
      5        1          -0.000244499    0.000000000    0.000365384
      6        1           0.000382643    0.000000000    0.000428292
      7        3           0.000497760    0.000000000   -0.000837291
 -------------------------------------------------------------------
 Cartesian Forces:  Max     0.003334975 RMS     0.000940595

 GradGradGradGradGradGradGradGradGradGradGradGradGradGradGradGradGradGrad
 Berny optimization.
 Using GEDIIS/GDIIS optimizer.
 Internal  Forces:  Max     0.001848678 RMS     0.000632353
 Search for a local minimum.
 Step number   5 out of a maximum of   28
 All quantities printed in internal units (Hartrees-Bohrs-Radians)
 Mixed Optimization -- En-DIIS/RFO-DIIS
 Update second derivatives using D2CorX and points    1    3    2    4    5
 DE= -8.76D-05 DEPred=-7.55D-05 R= 1.16D+00
 SS=  1.41D+00  RLast= 3.23D-02 DXNew= 2.5227D-01 9.6799D-02
 Trust test= 1.16D+00 RLast= 3.23D-02 DXMaxT set to 1.50D-01
 The second derivative matrix:
                          R1        R2        R3        R4        R5
           R1           0.34258
           R2           0.01298   0.92071
           R3           0.00746   0.01669   0.52581
           R4          -0.00146  -0.01788  -0.01282   0.05731
           R5          -0.00065  -0.00017   0.00065   0.00236   0.45606
           R6           0.00375   0.00561   0.00071  -0.00284  -0.00010
           A1           0.00656   0.01276   0.00219   0.00006   0.00118
           A2           0.01071   0.00943   0.01981  -0.00132  -0.00098
           A3          -0.00782  -0.02314   0.01459   0.01402  -0.00312
           A4           0.00487   0.00766   0.00425   0.00535  -0.00048
           A5          -0.00343  -0.00394  -0.00850  -0.00649   0.00073
           A6          -0.00144  -0.00372   0.00425   0.00114  -0.00024
[...]
 Frequencies --  1057.8909              1095.4851              1330.9584
 Red. masses --     1.4780                 1.6594                 2.5459
 Frc consts  --     0.9745                 1.1733                 2.6572
 IR Inten    --     4.1168                 3.2088               125.4662
  Atom  AN      X      Y      Z        X      Y      Z        X      Y      Z
     1   1     0.00   0.00   0.96     0.28  -0.13   0.00     0.56   0.06   0.00
     2   6     0.00   0.00  -0.20     0.02  -0.02   0.00     0.23   0.17   0.00
     3   8     0.00   0.00   0.05     0.11  -0.06   0.00     0.00  -0.03   0.00
     4   7     0.00   0.00   0.03    -0.13   0.12   0.00    -0.18  -0.12   0.00
     5   1     0.00   0.00   0.20     0.46  -0.18   0.00    -0.73   0.14   0.00
     6   1     0.00   0.00  -0.03    -0.72  -0.30   0.00    -0.05  -0.01   0.00
     7   3     0.00   0.00   0.00    -0.02   0.02   0.00    -0.01   0.01   0.00
                    10                     11                     12
                    A'                     A'                     A'
 Frequencies --  1426.8783              1638.2795              1725.6634
 Red. masses --     1.3250                 1.3102                 5.0899
 Frc consts  --     1.5894                 2.0719                 8.9305
 IR Inten    --    57.5211                58.9867               975.9795
  Atom  AN      X      Y      Z        X      Y      Z        X      Y      Z
     1   1     0.87  -0.43   0.00    -0.05  -0.06   0.00    -0.56   0.07   0.00
     2   6    -0.06  -0.08   0.00     0.02  -0.08   0.00     0.40  -0.31   0.00
     3   8    -0.05   0.11   0.00    -0.04   0.05   0.00    -0.17   0.20   0.00
     4   7     0.02  -0.02   0.00     0.11   0.02   0.00    -0.15   0.04   0.00
     5   1     0.09  -0.06   0.00    -0.54   0.34   0.00     0.47  -0.27   0.00
     6   1     0.14   0.06   0.00    -0.58  -0.48   0.00     0.08   0.21   0.00
     7   3     0.01  -0.01   0.00     0.00   0.00   0.00     0.00   0.00   0.00
                    13                     14                     15
                    A'                     A'                     A'
 Frequencies --  3082.2136              3563.7595              3688.8103
 Red. masses --     1.0896                 1.0478                 1.1058
 Frc consts  --     6.0988                 7.8402                 8.8654
 IR Inten    --    59.5852               103.7552               103.2049
  Atom  AN      X      Y      Z        X      Y      Z        X      Y      Z
     1   1     0.36   0.93   0.00     0.00   0.01   0.00    -0.01  -0.01   0.00
     2   6    -0.03  -0.08   0.00     0.00   0.00   0.00     0.00   0.00   0.00
     3   8     0.00   0.00   0.00     0.00   0.00   0.00     0.00   0.00   0.00
     4   7     0.00   0.00   0.00    -0.05  -0.01   0.00    -0.01   0.09   0.00
     5   1     0.00  -0.01   0.00     0.34   0.70   0.00    -0.27  -0.55   0.00
     6   1     0.00  -0.01   0.00     0.36  -0.51   0.00     0.46  -0.63   0.00
     7   3     0.00   0.00   0.00     0.00   0.00   0.00     0.00   0.00   0.00

 -------------------
 - Thermochemistry -
 -------------------
 Temperature   298.150 Kelvin.  Pressure   1.00000 Atm.
 Atom     1 has atomic number  1 and mass   1.00783
 Atom     2 has atomic number  6 and mass  12.00000
 Atom     3 has atomic number  8 and mass  15.99491
 Atom     4 has atomic number  7 and mass  14.00307
 Atom     5 has atomic number  1 and mass   1.00783
 Atom     6 has atomic number  1 and mass   1.00783
 Atom     7 has atomic number  3 and mass   7.01600
 Molecular mass:    52.03747 amu.
 Principal axes and moments of inertia in atomic units:
                           1         2         3
     Eigenvalues --    33.15249 350.67005 383.82255
           X            0.84645   0.53247   0.00000
           Y           -0.53247   0.84645   0.00000
           Z            0.00000   0.00000   1.00000
 This molecule is an asymmetric top.
 Rotational symmetry number  1.
 Rotational temperatures (Kelvin)      2.61259     0.24700     0.22566
 Rotational constants (GHZ):          54.43757     5.14655     4.70202
 Zero-point vibrational energy     126144.3 (Joules/Mol)
                                   30.14920 (Kcal/Mol)
 Warning -- explicit consideration of   5 degrees of freedom as
           vibrations may cause significant error
 Vibrational temperatures:    254.01   289.23   594.53   610.03   848.98
          (Kelvin)            971.00  1522.07  1576.16  1914.95  2052.96
                             2357.12  2482.84  4434.61  5127.45  5307.37
 
 Zero-point correction=                           0.048046 (Hartree/Particle)
 Thermal correction to Energy=                    0.052984
 Thermal correction to Enthalpy=                  0.053928
 Thermal correction to Gibbs Free Energy=         0.021590
 Sum of electronic and zero-point Energies=           -177.353938
 Sum of electronic and thermal Energies=              -177.349000
 Sum of electronic and thermal Enthalpies=            -177.348056
 Sum of electronic and thermal Free Energies=         -177.380394
 
                     E (Thermal)             CV                S
                      KCal/Mol        Cal/Mol-Kelvin    Cal/Mol-Kelvin
 Total                   33.248             15.373             68.062
 Electronic               0.000              0.000              0.000
 Translational            0.889              2.981             37.771
 Rotational               0.889              2.981             23.016
 Vibrational             31.471              9.412              7.275
 Vibration     1          0.628              1.871              2.365
 Vibration     2          0.638              1.838              2.124
 Vibration     3          0.777              1.442              0.915
 Vibration     4          0.786              1.418              0.879
 Vibration     5          0.947              1.053              0.467
                       Q            Log10(Q)             Ln(Q)
 Total Bot       0.117342D-09         -9.930546        -22.865928
 Total V=0       0.147552D+13         12.168944         28.020030
 Vib (Bot)       0.332587D-21        -21.478095        -49.455141
 Vib (Bot)    1  0.113903D+01          0.056536          0.130179
 Vib (Bot)    2  0.991485D+00         -0.003714         -0.008551
 Vib (Bot)    3  0.427120D+00         -0.369450         -0.850691
 Vib (Bot)    4  0.412869D+00         -0.384188         -0.884626
 Vib (Bot)    5  0.255634D+00         -0.592381         -1.364008
 Vib (V=0)       0.418211D+01          0.621396          1.430816
 Vib (V=0)    1  0.174394D+01          0.241532          0.556149
 Vib (V=0)    2  0.161042D+01          0.206940          0.476498
 Vib (V=0)    3  0.115759D+01          0.063557          0.146345
 Vib (V=0)    4  0.114843D+01          0.060104          0.138395
 Vib (V=0)    5  0.106156D+01          0.025944          0.059739
 Electronic      0.100000D+01          0.000000          0.000000
 Translational   0.147547D+08          7.168929         16.507070
 Rotational      0.239122D+05          4.378619         10.082143
 ***** Axes restored to original set *****
 -------------------------------------------------------------------
 Center     Atomic                   Forces (Hartrees/Bohr)
 Number     Number              X              Y              Z
 -------------------------------------------------------------------
      1        1          -0.000015470    0.000000000   -0.000053807
      2        6           0.000058856    0.000000000    0.000042128
      3        8           0.000009740    0.000000000   -0.000012496
      4        7          -0.000035520    0.000000000    0.000006071
      5        1          -0.000029007    0.000000000    0.000033055
      6        1          -0.000082119    0.000000000   -0.000014487
      7        3           0.000093519    0.000000000   -0.000000465
 -------------------------------------------------------------------
 Cartesian Forces:  Max     0.000093519 RMS     0.000036224

 GradGradGradGradGradGradGradGradGradGradGradGradGradGradGradGradGradGrad
 Berny optimization.
 Internal  Forces:  Max     0.000041828 RMS     0.000017775
 Search for a local minimum.
 Step number   1 out of a maximum of    2
 All quantities printed in internal units (Hartrees-Bohrs-Radians)
 Second derivative matrix not updated -- analytic derivatives used.
 The second derivative matrix:
                          R1        R2        R3        R4        R5
           R1           0.33598
           R2           0.02696   0.73973
           R3           0.01178   0.09270   0.52184
           R4          -0.00147   0.00558  -0.00772   0.04469
           R5          -0.00090  -0.00269   0.00727   0.00035   0.46535
           R6           0.00046  -0.00344   0.00328   0.00028  -0.00166
           A1          -0.00022   0.01024  -0.03139  -0.00122   0.00217
           A2           0.01172  -0.04435   0.01031   0.00136   0.00619
           A3          -0.01149   0.03411   0.02108  -0.00015  -0.00835
           A4           0.00223  -0.00228   0.00485   0.00076   0.00482
           A5          -0.00094   0.00445   0.01211  -0.00096  -0.00807
           A6          -0.00129  -0.00218  -0.01696   0.00020   0.00326
           A7           0.00021   0.00106  -0.00156   0.00289  -0.00302
           A8           0.00000   0.00000   0.00000   0.00000   0.00000
           D1           0.00000   0.00000   0.00000   0.00000   0.00000
           D2           0.00000   0.00000   0.00000   0.00000   0.00000
           D3           0.00000   0.00000   0.00000   0.00000   0.00000
           D4           0.00000   0.00000   0.00000   0.00000   0.00000
                          R6        A1        A2        A3        A4
           R6           0.47189
           A1          -0.00171   0.12463
           A2          -0.00322  -0.03227   0.12007
           A3           0.00493  -0.09236  -0.08780   0.18016
           A4          -0.00697   0.00188   0.01488  -0.01676   0.07999
           A5           0.00245  -0.00384  -0.01161   0.01545  -0.04401
           A6           0.00452   0.00196  -0.00327   0.00131  -0.03598
           A7           0.00155  -0.02161  -0.01208   0.03370   0.00735
           A8           0.00000   0.00000   0.00000   0.00000   0.00000
           D1           0.00000   0.00000   0.00000   0.00000   0.00000
           D2           0.00000   0.00000   0.00000   0.00000   0.00000
           D3           0.00000   0.00000   0.00000   0.00000   0.00000
           D4           0.00000   0.00000   0.00000   0.00000   0.00000
                          A5        A6        A7        A8        D1
           A5           0.08301
           A6          -0.03900   0.07498
           A7          -0.00795   0.00060   0.06967
           A8           0.00000   0.00000   0.00000   0.00593
           D1           0.00000   0.00000   0.00000   0.00185   0.03064
           D2           0.00000   0.00000   0.00000   0.00077   0.02251
           D3           0.00000   0.00000   0.00000  -0.00235  -0.01476
           D4           0.00000   0.00000   0.00000  -0.00343  -0.02289
                          D2        D3        D4
           D2           0.02217
           D3          -0.01532   0.02823
           D4          -0.01566   0.02767   0.03490
     Eigenvalues ---    0.00521   0.00732   0.01965   0.04395   0.05771
     Eigenvalues ---    0.08968   0.10980   0.12120   0.15341   0.27230
     Eigenvalues ---    0.33916   0.46346   0.47294   0.49663   0.78143
     Eigenvalues --- 1000.000001000.000001000.00000
 Angle between quadratic step and forces=  39.12 degrees.
 Linear search not attempted -- first point.
 Iteration  1 RMS(Cart)=  0.00017369 RMS(Int)=  0.00000002
 Iteration  2 RMS(Cart)=  0.00000002 RMS(Int)=  0.00000000
 ClnCor:  largest displacement from symmetrization is 2.28D-09 for atom     3.
 Variable       Old X    -DE/DX   Delta X   Delta X   Delta X     New X
                                 (Linear)    (Quad)   (Total)
    R1        2.07591   0.00001   0.00000   0.00003   0.00003   2.07594
    R2        2.34119   0.00002   0.00000   0.00002   0.00002   2.34121
    R3        2.52421  -0.00003   0.00000  -0.00007  -0.00007   2.52413
    R4        3.58963   0.00001   0.00000   0.00028   0.00028   3.58991
    R5        1.91678   0.00000   0.00000   0.00000   0.00000   1.91678
    R6        1.91232   0.00000   0.00000  -0.00001  -0.00001   1.91231
    A1        2.11778  -0.00003   0.00000  -0.00017  -0.00017   2.11761
    A2        1.99605  -0.00001   0.00000  -0.00003  -0.00003   1.99601
    A3        2.16936   0.00004   0.00000   0.00020   0.00020   2.16956
    A4        2.10660   0.00001   0.00000   0.00009   0.00009   2.10669
    A5        2.11333  -0.00003   0.00000  -0.00026  -0.00026   2.11307
    A6        2.06326   0.00002   0.00000   0.00017   0.00017   2.06343
    A7        3.25326   0.00000   0.00000  -0.00018  -0.00018   3.25308
    A8        3.14159   0.00000   0.00000   0.00000   0.00000   3.14159
    D1        3.14159   0.00000   0.00000   0.00000   0.00000   3.14159
    D2        0.00000   0.00000   0.00000   0.00000   0.00000   0.00000
    D3        0.00000   0.00000   0.00000   0.00000   0.00000   0.00000
    D4        3.14159   0.00000   0.00000   0.00000   0.00000   3.14159
         Item               Value     Threshold  Converged?
 Maximum Force            0.000042     0.000450     YES
 RMS     Force            0.000018     0.000300     YES
 Maximum Displacement     0.000375     0.001800     YES
 RMS     Displacement     0.000174     0.001200     YES
 Predicted change in Energy=-1.583536D-08
 Optimization completed.
    -- Stationary point found.
                           ----------------------------
                           !   Optimized Parameters   !
                           ! (Angstroms and Degrees)  !
 --------------------------                            --------------------------
 ! Name  Definition              Value          Derivative Info.                !
 --------------------------------------------------------------------------------
 ! R1    R(1,2)                  1.0985         -DE/DX =    0.0                 !
 ! R2    R(2,3)                  1.2389         -DE/DX =    0.0                 !
 ! R3    R(2,4)                  1.3358         -DE/DX =    0.0                 !
 ! R4    R(3,7)                  1.8995         -DE/DX =    0.0                 !
 ! R5    R(4,5)                  1.0143         -DE/DX =    0.0                 !
 ! R6    R(4,6)                  1.012          -DE/DX =    0.0                 !
 ! A1    A(1,2,3)              121.34           -DE/DX =    0.0                 !
 ! A2    A(1,2,4)              114.3651         -DE/DX =    0.0                 !
 ! A3    A(3,2,4)              124.2949         -DE/DX =    0.0                 !
 ! A4    A(2,4,5)              120.699          -DE/DX =    0.0                 !
 ! A5    A(2,4,6)              121.085          -DE/DX =    0.0                 !
 ! A6    A(5,4,6)              118.216          -DE/DX =    0.0                 !
 ! A7    L(2,3,7,4,-1)         186.3983         -DE/DX =    0.0                 !
 ! A8    L(2,3,7,4,-2)         180.0            -DE/DX =    0.0                 !
 ! D1    D(1,2,4,5)            180.0            -DE/DX =    0.0                 !
 ! D2    D(1,2,4,6)              0.0            -DE/DX =    0.0                 !
 ! D3    D(3,2,4,5)              0.0            -DE/DX =    0.0                 !
 ! D4    D(3,2,4,6)            180.0            -DE/DX =    0.0                 !
 --------------------------------------------------------------------------------
 GradGradGradGradGradGradGradGradGradGradGradGradGradGradGradGradGradGrad

 1|1|UNPC-DESKTOP-FUV5GU1|Freq|RB3LYP|6-31+G(d)|C1H3Li1N1O1(1+)|USER01|
 27-Jun-2024|0||#N Geom=AllCheck Guess=TCheck SCRF=Check GenChk RB3LYP/
 6-31+G(d) Freq||M0001||1,1|H,-1.5294019477,0.,0.1977248566|C,-0.452505
 1074,0.,-0.0191803397|O,-0.0297505998,0.,-1.1837235379|N,0.3279659675,
 0.,1.0648402059|H,1.3383386268,0.,0.975483724|H,-0.070067537,0.,1.9952
 268981|Li,0.4154206076,0.,-3.0303718071||Version=IA32W-G09RevA.02|Stat
 e=1-A'|HF=-177.4019838|RMSD=1.335e-009|RMSF=3.622e-005|ZeroPoint=0.048
 0458|Thermal=0.052984|Dipole=0.6225549,0.,-2.6456508|DipoleDeriv=-0.12
 68245,0.0000015,0.0973417,0.0000001,0.1324614,-0.0000012,0.0807959,-0.
 0000018,0.0170584,1.0383667,-0.0000018,0.15481,-0.0000002,0.3469821,0.
 0000013,0.2127562,0.0000087,2.7716541,-0.7710282,-0.0000004,0.5384505,
 -0.0000002,-0.5695383,0.0000014,0.0248871,-0.0000016,-2.2490508,-0.585
 5224,0.0000006,-0.7414935,0.,-0.6873509,-0.0000003,-0.2850998,-0.00000
 27,-1.2841437,0.2666979,-0.0000003,0.040962,0.,0.4047002,0.,0.0146454,
 0.0000001,0.2049325,0.2104261,0.,-0.0210083,0.,0.4195999,0.0000003,-0.
 0069357,0.0000002,0.3044992,0.9678844,0.0000005,-0.0690624,0.0000002,0
 .9531456,-0.0000016,-0.041049,-0.000003,1.2350503|Polar=28.0532439,0.0
 00018,18.8422072,1.186669,-0.0001003,42.5675627|PG=CS [SG(C1H3Li1N1O1)
 ]|NImag=0||0.32792850,0.,0.02707938,-0.04577189,0.00000001,0.07944220,
 -0.29941384,0.00000003,0.03955377,0.76128936,0.00000003,-0.06197377,0.
 ,-0.00000003,0.18417223,0.02831790,-0.00000006,-0.06461554,-0.07365793
 ,0.00000003,0.90030919,-0.00641139,0.,0.04119486,-0.18436502,-0.000000
 01,0.17628245,0.15902382,0.00000001,0.01781186,-0.00000002,-0.00000004
 ,-0.06751514,0.00000009,0.,0.03723900,0.02158525,0.,-0.01969580,0.1971
 7347,0.,-0.53085975,-0.20771456,-0.00000002,0.70276776,-0.02281205,0.,
 -0.03213169,-0.27419912,0.,-0.11427594,0.04138804,0.00000001,-0.014791
 33,0.84083454,-0.00000002,0.01181037,0.,0.00000001,-0.04588395,0.,0.,0
 .01633929,0.,0.,0.02950411,0.00014140,0.00000001,0.00617404,-0.1442864
 6,-0.00000002,-0.28438229,-0.01454845,-0.00000002,-0.11575543,-0.02042
 494,0.00000001,0.86360343,0.00030823,0.,-0.00262840,-0.01873586,0.,-0.
 00009766,0.00277816,0.,0.00428733,-0.44430549,0.,0.03670480,0.46226901
 ,0.,0.00740548,0.,0.,0.00105979,0.,0.,-0.00542211,0.,0.,-0.00946425,0.
 ,0.,0.01089789,-0.00280573,0.,-0.00368308,-0.03394159,0.,0.01207340,0.
 00448585,0.,0.00164955,0.03723299,0.,-0.08069102,-0.03450705,0.,0.0646
 1853,0.00016637,0.,-0.00016949,0.01699881,0.,-0.02012607,-0.00205628,0
 .,-0.00626360,-0.14031613,0.,0.14463880,-0.00245729,0.,0.02952824,0.12
 779922,0.,-0.00230429,0.,0.,-0.00911117,0.00000001,0.,0.00911112,0.,0.
 ,-0.00259613,0.,0.,-0.00438916,0.,0.,0.00909133,-0.00029554,0.,0.00104
 323,0.01517667,0.,-0.01943756,-0.00491351,0.,0.00017809,0.14139755,0.,
 -0.39596288,-0.00329300,0.,0.00613586,-0.14800359,0.,0.40807844,0.0002
 3418,0.,-0.00004717,-0.00157433,0.,0.00355725,-0.01035732,0.,0.0057234
 5,-0.00058979,0.,-0.00222514,0.00014324,0.,0.00000729,-0.00013470,0.,-
 0.00006858,0.01227872,-0.00000002,0.00017096,0.00000002,0.00000003,-0.
 00074798,-0.00000008,0.,-0.00756402,0.,0.,0.00029056,0.00000002,0.,-0.
 00008763,0.,0.,0.00019831,0.,0.,0.00773982,-0.00117138,0.00000003,0.00
 133495,-0.00001794,-0.00000002,-0.01308745,0.00521337,-0.00000004,-0.0
 3828443,0.00299336,0.,0.00701416,-0.00046602,0.,-0.00010325,0.00039571
 ,0.,-0.00003518,-0.00694710,0.00000004,0.04316119||0.00001547,0.,0.000
 05381,-0.00005886,0.,-0.00004213,-0.00000974,0.,0.00001250,0.00003552,
 0.,-0.00000607,0.00002901,0.,-0.00003306,0.00008212,0.,0.00001449,-0.0
 0009352,0.,0.00000047|||@


 LIFE IS A CONTINUAL STRUGGLE AGAINST THE TENDENCY TO PRODUCE ENTROPY.
 Job cpu time:  0 days  0 hours  0 minutes 52.0 seconds.
 File lengths (MBytes):  RWF=     14 Int=      0 D2E=      0 Chk=      3 Scr=      1
 Normal termination of Gaussian 09 at Thu Jun 27 13:51:09 2024.
