 Entering Link 1 = C:\G09W\l1.exe PID=      9484.
  
 Copyright (c) 1988,1990,1992,1993,1995,1998,2003,2009, Gaussian, Inc.
                  All Rights Reserved.
  
 This is part of the Gaussian(R) 09 program.  It is based on
 the Gaussian(R) 03 system (copyright 2003, Gaussian, Inc.),
 the Gaussian(R) 98 system (copyright 1998, Gaussian, Inc.),
 the Gaussian(R) 94 system (copyright 1995, Gaussian, Inc.),
 the Gaussian 92(TM) system (copyright 1992, Gaussian, Inc.),
 the Gaussian 90(TM) system (copyright 1990, Gaussian, Inc.),
 the Gaussian 88(TM) system (copyright 1988, Gaussian, Inc.),
 the Gaussian 86(TM) system (copyright 1986, Carnegie Mellon
 University), and the Gaussian 82(TM) system (copyright 1983,
 Carnegie Mellon University). Gaussian is a federally registered
 trademark of Gaussian, Inc.
  
 This software contains proprietary and confidential information,
 including trade secrets, belonging to Gaussian, Inc.
  
 This software is provided under written license and may be
 used, copied, transmitted, or stored only in accord with that
 written license.
  
 The following legend is applicable only to US Government
 contracts under FAR:
  
                    RESTRICTED RIGHTS LEGEND
  
 Use, reproduction and disclosure by the US Government is
 subject to restrictions as set forth in subparagraphs (a)
 and (c) of the Commercial Computer Software - Restricted
 Rights clause in FAR 52.227-19.
  
 Gaussian, Inc.
 340 Quinnipiac St., Bldg. 40, Wallingford CT 06492
  
  
 ---------------------------------------------------------------
 Warning -- This program may not be used in any manner that
 competes with the business of Gaussian, Inc. or will provide
 assistance to any competitor of Gaussian, Inc.  The licensee
 of this program is prohibited from giving any competitor of
 Gaussian, Inc. access to this program.  By using this program,
 the user acknowledges that Gaussian, Inc. is engaged in the
 business of creating and licensing software in the field of
 computational chemistry and represents and warrants to the
 licensee that it is not a competitor of Gaussian, Inc. and that
 it will not use this program in any manner prohibited above.
 ---------------------------------------------------------------
  

 Cite this work as:
 Gaussian 09, Revision A.02,
 M. J. Frisch, G. W. Trucks, H. B. Schlegel, G. E. Scuseria, 
 M. A. Robb, J. R. Cheeseman, G. Scalmani, V. Barone, B. Mennucci, 
 G. A. Petersson, H. Nakatsuji, M. Caricato, X. Li, H. P. Hratchian, 
 A. F. Izmaylov, J. Bloino, G. Zheng, J. L. Sonnenberg, M. Hada, 
 M. Ehara, K. Toyota, R. Fukuda, J. Hasegawa, M. Ishida, T. Nakajima, 
 Y. Honda, O. Kitao, H. Nakai, T. Vreven, J. A. Montgomery, Jr., 
 J. E. Peralta, F. Ogliaro, M. Bearpark, J. J. Heyd, E. Brothers, 
 K. N. Kudin, V. N. Staroverov, R. Kobayashi, J. Normand, 
 K. Raghavachari, A. Rendell, J. C. Burant, S. S. Iyengar, J. Tomasi, 
 M. Cossi, N. Rega, J. M. Millam, M. Klene, J. E. Knox, J. B. Cross, 
 V. Bakken, C. Adamo, J. Jaramillo, R. Gomperts, R. E. Stratmann, 
 O. Yazyev, A. J. Austin, R. Cammi, C. Pomelli, J. W. Ochterski, 
 R. L. Martin, K. Morokuma, V. G. Zakrzewski, G. A. Voth, 
 P. Salvador, J. J. Dannenberg, S. Dapprich, A. D. Daniels, 
 O. Farkas, J. B. Foresman, J. V. Ortiz, J. Cioslowski, 
 and D. J. Fox, Gaussian, Inc., Wallingford CT, 2009.
 
 ******************************************
 Gaussian 09:  IA32W-G09RevA.02 11-Jun-2009
                27-Jun-2024 
 ******************************************
 %chk=C:\Users\user01\Desktop\Formamide\Formamide-C1_Water.chk
 ----------------------------------------------------------------------
 # opt freq b3lyp/6-31+g(d) scrf=(cpcm,solvent=water) geom=connectivity
 ----------------------------------------------------------------------
 1/14=-1,18=20,19=15,26=3,38=1,57=2/1,3;
 2/9=110,12=2,17=6,18=5,40=1/2;
 3/5=1,6=6,7=11,11=2,16=1,25=1,30=1,70=2101,71=1,72=1,74=-5/1,2,3;
 4//1;
 5/5=2,38=5,53=1/2;
 6/7=2,8=2,9=2,10=2,28=1/1;
 7//1,2,3,16;
 1/14=-1,18=20,19=15/3(2);
 2/9=110/2;
 99//99;
 2/9=110/2;
 3/5=1,6=6,7=11,11=2,16=1,25=1,30=1,70=2105,71=1,72=1,74=-5/1,2,3;
 4/5=5,16=3/1;
 5/5=2,38=5,53=1/2;
 7//1,2,3,16;
 1/14=-1,18=20,19=15/3(-5);
 2/9=110/2;
 6/7=2,8=2,9=2,10=2,19=2,28=1/1;
 99/9=1/99;
 -----
 M0001
 -----
 Symbolic Z-matrix:
 Charge =  0 Multiplicity = 1
 H                     0.47164   0.       -1.42398 
 C                     0.5801    0.       -0.3274 
 O                     1.65788   0.        0.24583 
 N                    -0.6114    0.        0.3257 
 H                    -0.60015   0.        1.33729 
 H                    -1.49806   0.       -0.15744 
 

 GradGradGradGradGradGradGradGradGradGradGradGradGradGradGradGradGradGrad
 Berny optimization.
 Initialization pass.
                           ----------------------------
                           !    Initial Parameters    !
                           ! (Angstroms and Degrees)  !
 --------------------------                            --------------------------
 ! Name  Definition              Value          Derivative Info.                !
 --------------------------------------------------------------------------------
 ! R1    R(1,2)                  1.1019         estimate D2E/DX2                !
 ! R2    R(2,3)                  1.2207         estimate D2E/DX2                !
 ! R3    R(2,4)                  1.3588         estimate D2E/DX2                !
 ! R4    R(4,5)                  1.0117         estimate D2E/DX2                !
 ! R5    R(4,6)                  1.0097         estimate D2E/DX2                !
 ! A1    A(1,2,3)              123.6554         estimate D2E/DX2                !
 ! A2    A(1,2,4)              113.0798         estimate D2E/DX2                !
 ! A3    A(3,2,4)              123.2648         estimate D2E/DX2                !
 ! A4    A(2,4,5)              118.0914         estimate D2E/DX2                !
 ! A5    A(2,4,6)              122.6857         estimate D2E/DX2                !
 ! A6    A(5,4,6)              119.2229         estimate D2E/DX2                !
 ! D1    D(1,2,4,5)            180.0            estimate D2E/DX2                !
 ! D2    D(1,2,4,6)              0.0            estimate D2E/DX2                !
 ! D3    D(3,2,4,5)              0.0            estimate D2E/DX2                !
 ! D4    D(3,2,4,6)            180.0            estimate D2E/DX2                !
 --------------------------------------------------------------------------------
 Trust Radius=3.00D-01 FncErr=1.00D-07 GrdErr=1.00D-06
 Number of steps in this run=  25 maximum allowed number of steps= 100.
 GradGradGradGradGradGradGradGradGradGradGradGradGradGradGradGradGradGrad

                          Input orientation:                          
 ---------------------------------------------------------------------
 Center     Atomic      Atomic             Coordinates (Angstroms)
 Number     Number       Type             X           Y           Z
 ---------------------------------------------------------------------
      1          1           0        0.471641    0.000000   -1.423980
      2          6           0        0.580102    0.000000   -0.327399
      3          8           0        1.657876    0.000000    0.245828
      4          7           0       -0.611402    0.000000    0.325700
      5          1           0       -0.600155    0.000000    1.337292
      6          1           0       -1.498063    0.000000   -0.157440
 ---------------------------------------------------------------------
                    Distance matrix (angstroms):
                    1          2          3          4          5
     1  H    0.000000
     2  C    1.101932   0.000000
     3  O    2.048271   1.220732   0.000000
     4  N    2.057757   1.358757   2.270684   0.000000
     5  H    2.961988   2.040637   2.507987   1.011655   0.000000
     6  H    2.341765   2.085103   3.181600   1.009748   1.743692
                    6
     6  H    0.000000
 Stoichiometry    CH3NO
 Framework group  CS[SG(CH3NO)]
 Deg. of freedom     9
 Full point group                 CS      NOp   2
 Largest Abelian subgroup         CS      NOp   2
 Largest concise Abelian subgroup C1      NOp   1
                         Standard orientation:                         
 ---------------------------------------------------------------------
 Center     Atomic      Atomic             Coordinates (Angstroms)
 Number     Number       Type             X           Y           Z
 ---------------------------------------------------------------------
      1          1           0       -0.429938    1.446488    0.000000
      2          6           0        0.000000    0.431890    0.000000
      3          8           0        1.199545    0.205440    0.000000
      4          7           0       -0.943108   -0.546254    0.000000
      5          1           0       -0.631273   -1.508649    0.000000
      6          1           0       -1.933387   -0.348924    0.000000
 ---------------------------------------------------------------------
 Rotational constants (GHZ):     71.3440557     11.4441951      9.8622122
 Standard basis: 6-31+G(d) (6D, 7F)
 There are    48 symmetry adapted basis functions of A'  symmetry.
 There are    15 symmetry adapted basis functions of A"  symmetry.
 Integral buffers will be    262144 words long.
 Raffenetti 2 integral format.
 Two-electron integral symmetry is turned on.
    63 basis functions,   108 primitive gaussians,    63 cartesian basis functions
    12 alpha electrons       12 beta electrons
       nuclear repulsion energy        71.0991493767 Hartrees.
 NAtoms=    6 NActive=    6 NUniq=    6 SFac= 7.50D-01 NAtFMM=   80 NAOKFM=F Big=F
 ------------------------------------------------------------------------------
 Polarizable Continuum Model (PCM)
 =================================
 Model                : C-PCM.
 Atomic radii         : UFF (Universal Force Field).
 Polarization charges : Total charges.
 Charge compensation  : None.
 Solution method      : Matrix inversion.
 Cavity type          : Scaled VdW (van der Waals Surface) (Alpha=1.100).
 Cavity algorithm     : GePol (No added spheres)
                        Default sphere list used, NSphG=    6.
                        Lebedev-Laikov grids with approx.  5.0 points / Ang**2.
                        Smoothing algorithm: Karplus/York (Gamma=1.0000).
                        Polarization charges: spherical gaussians, with
                                              point-specific exponents (IZeta= 3).
                        Self-potential: point-specific (ISelfS= 7).
                        Self-field    : sphere-specific E.n sum rule (ISelfD= 2).
 1st derivatives      : Analytical E(r).r(x)/FMM algorithm (CHGder, D1EAlg=3).
                        Cavity 1st derivative terms included.
 Solvent              : Water, Eps=  78.355300 Eps(inf)=   1.777849
 ------------------------------------------------------------------------------
 Spheres list:
 ISph  on   Nord    Re0     Alpha      Xe            Ye            Ze
    1   H      1    1.443   1.100     -0.429938      1.446488      0.000000
    2   C      2    1.926   1.100      0.000000      0.431890      0.000000
    3   O      3    1.750   1.100      1.199545      0.205440      0.000000
    4   N      4    1.830   1.100     -0.943108     -0.546254      0.000000
    5   H      5    1.443   1.100     -0.631273     -1.508649      0.000000
    6   H      6    1.443   1.100     -1.933387     -0.348924      0.000000
 ------------------------------------------------------------------------------
 One-electron integrals computed using PRISM.
 NBasis=    63 RedAO= T  NBF=    48    15
 NBsUse=    63 1.00D-06 NBFU=    48    15
 Harris functional with IExCor=  402 diagonalized for initial guess.
 ExpMin= 4.38D-02 ExpMax= 5.48D+03 ExpMxC= 8.25D+02 IAcc=2 IRadAn=         0 AccDes= 0.00D+00
 HarFok:  IExCor=  402 AccDes= 0.00D+00 IRadAn=         0 IDoV= 1
 ScaDFX=  1.000000  1.000000  1.000000  1.000000
 FoFCou: FMM=F IPFlag=           0 FMFlag=      100000 FMFlg1=           0
         NFxFlg=           0 DoJE=T BraDBF=F KetDBF=T FulRan=T
         Omega=  0.000000  0.000000  1.000000  0.000000  0.000000 ICntrl=     500 IOpCl=  0
         NMat0=    1 NMatS0=    1 NMatT0=    0 NMatD0=    1 NMtDS0=    0 NMtDT0=    0
         I1Cent=           4 NGrid=           0.
 Petite list used in FoFCou.
 Initial guess orbital symmetries:
       Occupied  (A') (A') (A') (A') (A') (A') (A') (A') (A') (A")
                 (A') (A")
       Virtual   (A") (A') (A') (A') (A") (A') (A') (A') (A") (A')
                 (A') (A') (A") (A') (A') (A') (A') (A') (A") (A')
                 (A') (A') (A') (A") (A') (A') (A') (A") (A') (A')
                 (A') (A') (A") (A") (A') (A") (A') (A") (A') (A')
                 (A') (A") (A') (A') (A") (A') (A') (A') (A') (A')
                 (A')
 The electronic state of the initial guess is 1-A'.
 Requested convergence on RMS density matrix=1.00D-08 within 128 cycles.
 Requested convergence on MAX density matrix=1.00D-06.
 Requested convergence on             energy=1.00D-06.
 No special actions if energy rises.
 Keep R1 ints in memory in canonical form, NReq=5516307.
 Error on total polarization charges =  0.00975
 SCF Done:  E(RB3LYP) =  -169.914611038     A.U. after   10 cycles
             Convg  =    0.7892D-08             -V/T =  2.0096

 **********************************************************************

            Population analysis using the SCF density.

 **********************************************************************

 Orbital symmetries:
       Occupied  (A') (A') (A') (A') (A') (A') (A') (A') (A') (A")
                 (A") (A')
       Virtual   (A") (A') (A') (A') (A") (A') (A') (A") (A') (A')
                 (A') (A") (A') (A') (A') (A') (A') (A') (A") (A')
                 (A') (A') (A') (A") (A') (A') (A') (A") (A') (A')
                 (A') (A') (A") (A") (A') (A") (A') (A") (A') (A')
                 (A') (A") (A') (A') (A") (A') (A') (A') (A') (A')
                 (A')
 The electronic state is 1-A'.
 Alpha  occ. eigenvalues --  -19.14555 -14.37457 -10.30619  -1.05666  -0.91788
 Alpha  occ. eigenvalues --   -0.63621  -0.56403  -0.49326  -0.43658  -0.42058
 Alpha  occ. eigenvalues --   -0.28908  -0.28244
 Alpha virt. eigenvalues --    0.00119   0.01127   0.03524   0.03961   0.06226
 Alpha virt. eigenvalues --    0.10498   0.11232   0.14640   0.16774   0.19157
 Alpha virt. eigenvalues --    0.21008   0.22604   0.23000   0.25320   0.27521
 Alpha virt. eigenvalues --    0.31257   0.35276   0.46452   0.64299   0.72070
 Alpha virt. eigenvalues --    0.75789   0.81931   0.88060   0.88830   0.98379
 Alpha virt. eigenvalues --    0.99138   1.07737   1.20539   1.22106   1.25042
 Alpha virt. eigenvalues --    1.29504   1.31845   1.36527   1.45608   1.56216
 Alpha virt. eigenvalues --    1.67613   1.79077   1.82455   1.87644   2.05286
 Alpha virt. eigenvalues --    2.12967   2.29148   2.29974   2.49161   2.60809
 Alpha virt. eigenvalues --    2.68797   2.95243   3.05577   3.87544   4.11701
 Alpha virt. eigenvalues --    4.31405
          Condensed to atoms (all electrons):
              1          2          3          4          5          6
     1  H    0.565181   0.432551  -0.051074  -0.142647   0.004359   0.005506
     2  C    0.432551   4.657718   0.415184   0.214389  -0.007591   0.006449
     3  O   -0.051074   0.415184   8.358857  -0.153136   0.007447   0.008813
     4  N   -0.142647   0.214389  -0.153136   7.253863   0.285623   0.264472
     5  H    0.004359  -0.007591   0.007447   0.285623   0.300733  -0.009411
     6  H    0.005506   0.006449   0.008813   0.264472  -0.009411   0.301777
 Mulliken atomic charges:
              1
     1  H    0.186123
     2  C    0.281299
     3  O   -0.586092
     4  N   -0.722565
     5  H    0.418841
     6  H    0.422393
 Sum of Mulliken atomic charges =   0.00000
 Mulliken charges with hydrogens summed into heavy atoms:
              1
     2  C    0.467422
     3  O   -0.586092
     4  N    0.118670
 Sum of Mulliken charges with hydrogens summed into heavy atoms =   0.00000
 Electronic spatial extent (au):  <R**2>=            146.8118
 Charge=              0.0000 electrons
 Dipole moment (field-independent basis, Debye):
    X=             -5.0939    Y=             -0.6351    Z=              0.0000  Tot=              5.1334
 Quadrupole moment (field-independent basis, Debye-Ang):
   XX=            -18.9798   YY=            -14.5972   ZZ=            -19.3401
   XY=             -0.0647   XZ=              0.0000   YZ=              0.0000
 Traceless Quadrupole moment (field-independent basis, Debye-Ang):
   XX=             -1.3407   YY=              3.0419   ZZ=             -1.7011
   XY=             -0.0647   XZ=              0.0000   YZ=              0.0000
 Octapole moment (field-independent basis, Debye-Ang**2):
  XXX=            -16.9073  YYY=             -4.5470  ZZZ=              0.0000  XYY=             -3.1001
  XXY=             -2.7305  XXZ=              0.0000  XZZ=              0.8654  YZZ=              0.4291
  YYZ=              0.0000  XYZ=              0.0000
 Hexadecapole moment (field-independent basis, Debye-Ang**3):
 XXXX=           -100.0148 YYYY=            -39.7216 ZZZZ=            -19.8388 XXXY=            -13.2669
 XXXZ=              0.0000 YYYX=            -12.2750 YYYZ=              0.0000 ZZZX=              0.0000
 ZZZY=              0.0000 XXYY=            -27.6206 XXZZ=            -24.0571 YYZZ=            -12.4011
 XXYZ=              0.0000 YYXZ=              0.0000 ZZXY=             -5.5743
 N-N= 7.109914937668D+01 E-N=-5.397672459839D+02  KE= 1.682936414879D+02
 Symmetry A'   KE= 1.613133391099D+02
 Symmetry A"   KE= 6.980302378006D+00
 D1PCM: C-PCM CHGder 1st derivatives, ID1Alg=3 FixD1E=F DoIter=F DoCFld=F I1PDM=0.
 Calling FoFJK, ICntrl=      2127 FMM=F ISym2X=1 I1Cent= 0 IOpClX= 0 NMat=1 NMatS=1 NMatT=0.
 ***** Axes restored to original set *****
 -------------------------------------------------------------------
 Center     Atomic                   Forces (Hartrees/Bohr)
 Number     Number              X              Y              Z
 -------------------------------------------------------------------
      1        1           0.001896502    0.000000000   -0.000454217
      2        6          -0.024583655    0.000000000   -0.000173833
      3        8           0.017337322    0.000000000    0.003682397
      4        7           0.009279065    0.000000000   -0.003650530
      5        1          -0.003109127    0.000000000    0.001826481
      6        1          -0.000820107    0.000000000   -0.001230299
 -------------------------------------------------------------------
 Cartesian Forces:  Max     0.024583655 RMS     0.007590010

 GradGradGradGradGradGradGradGradGradGradGradGradGradGradGradGradGradGrad
 Berny optimization.
 Internal  Forces:  Max     0.017027232 RMS     0.005346106
 Search for a local minimum.
 Step number   1 out of a maximum of   25
 All quantities printed in internal units (Hartrees-Bohrs-Radians)
 Mixed Optimization -- RFO/linear search
 Second derivative matrix not updated -- first step.
 The second derivative matrix:
                          R1        R2        R3        R4        R5
           R1           0.33469
           R2           0.00000   0.95060
           R3           0.00000   0.00000   0.53200
           R4           0.00000   0.00000   0.00000   0.45697
           R5           0.00000   0.00000   0.00000   0.00000   0.46015
           A1           0.00000   0.00000   0.00000   0.00000   0.00000
           A2           0.00000   0.00000   0.00000   0.00000   0.00000
           A3           0.00000   0.00000   0.00000   0.00000   0.00000
           A4           0.00000   0.00000   0.00000   0.00000   0.00000
           A5           0.00000   0.00000   0.00000   0.00000   0.00000
           A6           0.00000   0.00000   0.00000   0.00000   0.00000
           D1           0.00000   0.00000   0.00000   0.00000   0.00000
           D2           0.00000   0.00000   0.00000   0.00000   0.00000
           D3           0.00000   0.00000   0.00000   0.00000   0.00000
           D4           0.00000   0.00000   0.00000   0.00000   0.00000
                          A1        A2        A3        A4        A5
           A1           0.16000
           A2           0.00000   0.16000
           A3           0.00000   0.00000   0.25000
           A4           0.00000   0.00000   0.00000   0.16000
           A5           0.00000   0.00000   0.00000   0.00000   0.16000
           A6           0.00000   0.00000   0.00000   0.00000   0.00000
           D1           0.00000   0.00000   0.00000   0.00000   0.00000
           D2           0.00000   0.00000   0.00000   0.00000   0.00000
           D3           0.00000   0.00000   0.00000   0.00000   0.00000
           D4           0.00000   0.00000   0.00000   0.00000   0.00000
                          A6        D1        D2        D3        D4
           A6           0.16000
           D1           0.00000   0.02237
           D2           0.00000   0.00000   0.02237
           D3           0.00000   0.00000   0.00000   0.02237
           D4           0.00000   0.00000   0.00000   0.00000   0.02237
     Eigenvalues ---    0.02237   0.02237   0.02237   0.16000   0.16000
     Eigenvalues ---    0.16000   0.22000   0.33469   0.45697   0.46015
     Eigenvalues ---    0.53200   0.950601000.000001000.000001000.00000
 RFO step:  Lambda=-8.84159943D-04 EMin= 2.23734717D-02
 Linear search not attempted -- first point.
 Iteration  1 RMS(Cart)=  0.02107895 RMS(Int)=  0.00032024
 Iteration  2 RMS(Cart)=  0.00029742 RMS(Int)=  0.00000005
 Iteration  3 RMS(Cart)=  0.00000007 RMS(Int)=  0.00000000
 ClnCor:  largest displacement from symmetrization is 4.75D-11 for atom     2.
 Variable       Old X    -DE/DX   Delta X   Delta X   Delta X     New X
                                 (Linear)    (Quad)   (Total)
    R1        2.08235   0.00028   0.00000   0.00082   0.00082   2.08317
    R2        2.30685   0.01703   0.00000   0.01790   0.01790   2.32474
    R3        2.56768  -0.00616   0.00000  -0.01156  -0.01156   2.55612
    R4        1.91175   0.00180   0.00000   0.00393   0.00393   1.91569
    R5        1.90815   0.00130   0.00000   0.00282   0.00282   1.91097
    A1        2.15819  -0.00511   0.00000  -0.02647  -0.02647   2.13172
    A2        1.97362  -0.00113   0.00000  -0.00175  -0.00175   1.97187
    A3        2.15138   0.00623   0.00000   0.02822   0.02822   2.17959
    A4        2.06108   0.00438   0.00000   0.02725   0.02725   2.08834
    A5        2.14127  -0.00283   0.00000  -0.01758  -0.01758   2.12369
    A6        2.08083  -0.00156   0.00000  -0.00968  -0.00968   2.07115
    D1        3.14159   0.00000   0.00000   0.00000   0.00000   3.14159
    D2        0.00000   0.00000   0.00000   0.00000   0.00000   0.00000
    D3        0.00000   0.00000   0.00000   0.00000   0.00000   0.00000
    D4        3.14159   0.00000   0.00000   0.00000   0.00000   3.14159
         Item               Value     Threshold  Converged?
 Maximum Force            0.017027     0.000450     NO 
 RMS     Force            0.005346     0.000300     NO 
 Maximum Displacement     0.045675     0.001800     NO 
 RMS     Displacement     0.021145     0.001200     NO 
 Predicted change in Energy=-4.434651D-04
 GradGradGradGradGradGradGradGradGradGradGradGradGradGradGradGradGradGrad

                          Input orientation:                          
 ---------------------------------------------------------------------
 Center     Atomic      Atomic             Coordinates (Angstroms)
 Number     Number       Type             X           Y           Z
 ---------------------------------------------------------------------
      1          1           0        0.465526    0.000000   -1.416310
      2          6           0        0.576830    0.000000   -0.319578
      3          8           0        1.679273    0.000000    0.226332
      4          7           0       -0.608786    0.000000    0.331538
      5          1           0       -0.624325    0.000000    1.345155
      6          1           0       -1.488518    0.000000   -0.167137
 ---------------------------------------------------------------------
                    Distance matrix (angstroms):
                    1          2          3          4          5
     1  H    0.000000
     2  C    1.102366   0.000000
     3  O    2.042414   1.230202   0.000000
     4  N    2.051613   1.352640   2.290476   0.000000
     5  H    2.968748   2.052829   2.560923   1.013737   0.000000
     6  H    2.319206   2.070966   3.192133   1.011239   1.741797
                    6
     6  H    0.000000
 Stoichiometry    CH3NO
 Framework group  CS[SG(CH3NO)]
 Deg. of freedom     9
 Full point group                 CS      NOp   2
 Largest Abelian subgroup         CS      NOp   2
 Largest concise Abelian subgroup C1      NOp   1
                         Standard orientation:                         
 ---------------------------------------------------------------------
 Center     Atomic      Atomic             Coordinates (Angstroms)
 Number     Number       Type             X           Y           Z
 ---------------------------------------------------------------------
      1          1           0       -0.418252    1.439102    0.000000
      2          6           0        0.000000    0.419163    0.000000
      3          8           0        1.212099    0.208896    0.000000
      4          7           0       -0.951825   -0.541912    0.000000
      5          1           0       -0.678800   -1.518191    0.000000
      6          1           0       -1.936970   -0.313672    0.000000
 ---------------------------------------------------------------------
 Rotational constants (GHZ):     73.0950783     11.2510757      9.7502757
 Standard basis: 6-31+G(d) (6D, 7F)
 There are    48 symmetry adapted basis functions of A'  symmetry.
 There are    15 symmetry adapted basis functions of A"  symmetry.
 Integral buffers will be    262144 words long.
 Raffenetti 2 integral format.
 Two-electron integral symmetry is turned on.
    63 basis functions,   108 primitive gaussians,    63 cartesian basis functions
    12 alpha electrons       12 beta electrons
       nuclear repulsion energy        70.8614228964 Hartrees.
 NAtoms=    6 NActive=    6 NUniq=    6 SFac= 7.50D-01 NAtFMM=   80 NAOKFM=F Big=F
 ------------------------------------------------------------------------------
 Polarizable Continuum Model (PCM)
 =================================
 Model                : C-PCM.
 Atomic radii         : UFF (Universal Force Field).
 Polarization charges : Total charges.
 Charge compensation  : None.
 Solution method      : Matrix inversion.
 Cavity type          : Scaled VdW (van der Waals Surface) (Alpha=1.100).
 Cavity algorithm     : GePol (No added spheres)
                        Default sphere list used, NSphG=    6.
                        Lebedev-Laikov grids with approx.  5.0 points / Ang**2.
                        Smoothing algorithm: Karplus/York (Gamma=1.0000).
                        Polarization charges: spherical gaussians, with
                                              point-specific exponents (IZeta= 3).
                        Self-potential: point-specific (ISelfS= 7).
                        Self-field    : sphere-specific E.n sum rule (ISelfD= 2).
 1st derivatives      : Analytical E(r).r(x)/FMM algorithm (CHGder, D1EAlg=3).
                        Cavity 1st derivative terms included.
 Solvent              : Water, Eps=  78.355300 Eps(inf)=   1.777849
 ------------------------------------------------------------------------------
 Spheres list:
 ISph  on   Nord    Re0     Alpha      Xe            Ye            Ze
    1   H      1    1.443   1.100     -0.418252      1.439102      0.000000
    2   C      2    1.926   1.100      0.000000      0.419163      0.000000
    3   O      3    1.750   1.100      1.212099      0.208896      0.000000
    4   N      4    1.830   1.100     -0.951825     -0.541912      0.000000
    5   H      5    1.443   1.100     -0.678800     -1.518191      0.000000
    6   H      6    1.443   1.100     -1.936970     -0.313672      0.000000
 ------------------------------------------------------------------------------
 One-electron integrals computed using PRISM.
 NBasis=    63 RedAO= T  NBF=    48    15
 NBsUse=    63 1.00D-06 NBFU=    48    15
 Initial guess read from the read-write file.
 B after Tr=     0.000000    0.000000    0.000000
         Rot=    1.000000    0.000000    0.000000    0.000000 Ang=   0.00 deg.
 Initial guess orbital symmetries:
       Occupied  (A') (A') (A') (A') (A') (A') (A') (A') (A') (A")
                 (A") (A')
       Virtual   (A") (A') (A') (A') (A") (A') (A') (A") (A') (A')
                 (A') (A") (A') (A') (A') (A') (A') (A') (A") (A')
                 (A') (A') (A') (A") (A') (A') (A') (A") (A') (A')
                 (A') (A') (A") (A") (A') (A") (A') (A") (A') (A')
                 (A') (A") (A') (A') (A") (A') (A') (A') (A') (A')
                 (A')
 Harris functional with IExCor=  402 diagonalized for initial guess.
 ExpMin= 4.38D-02 ExpMax= 5.48D+03 ExpMxC= 8.25D+02 IAcc=2 IRadAn=         0 AccDes= 0.00D+00
 HarFok:  IExCor=  402 AccDes= 0.00D+00 IRadAn=         0 IDoV= 1
 ScaDFX=  1.000000  1.000000  1.000000  1.000000
 FoFCou: FMM=F IPFlag=           0 FMFlag=      100000 FMFlg1=           0
         NFxFlg=           0 DoJE=T BraDBF=F KetDBF=T FulRan=T
         Omega=  0.000000  0.000000  1.000000  0.000000  0.000000 ICntrl=     500 IOpCl=  0
         NMat0=    1 NMatS0=    1 NMatT0=    0 NMatD0=    1 NMtDS0=    0 NMtDT0=    0
         I1Cent=           4 NGrid=           0.
 Petite list used in FoFCou.
 Requested convergence on RMS density matrix=1.00D-08 within 128 cycles.
 Requested convergence on MAX density matrix=1.00D-06.
 Requested convergence on             energy=1.00D-06.
 No special actions if energy rises.
 Keep R1 ints in memory in canonical form, NReq=5519200.
 Error on total polarization charges =  0.00977
 SCF Done:  E(RB3LYP) =  -169.915150671     A.U. after    9 cycles
             Convg  =    0.8552D-08             -V/T =  2.0098
 D1PCM: C-PCM CHGder 1st derivatives, ID1Alg=3 FixD1E=F DoIter=F DoCFld=F I1PDM=0.
 Calling FoFJK, ICntrl=      2127 FMM=F ISym2X=1 I1Cent= 0 IOpClX= 0 NMat=1 NMatS=1 NMatT=0.
 ***** Axes restored to original set *****
 -------------------------------------------------------------------
 Center     Atomic                   Forces (Hartrees/Bohr)
 Number     Number              X              Y              Z
 -------------------------------------------------------------------
      1        1           0.000521069    0.000000000   -0.000004563
      2        6          -0.008099357    0.000000000   -0.000922330
      3        8           0.003079974    0.000000000    0.001536175
      4        7           0.005811030    0.000000000   -0.000234110
      5        1          -0.001361648    0.000000000   -0.000000689
      6        1           0.000048932    0.000000000   -0.000374483
 -------------------------------------------------------------------
 Cartesian Forces:  Max     0.008099357 RMS     0.002520885

 GradGradGradGradGradGradGradGradGradGradGradGradGradGradGradGradGradGrad
 Berny optimization.
 Using GEDIIS/GDIIS optimizer.
 Internal  Forces:  Max     0.004236287 RMS     0.001555894
 Search for a local minimum.
 Step number   2 out of a maximum of   25
 All quantities printed in internal units (Hartrees-Bohrs-Radians)
 Mixed Optimization -- RFO/linear search
 Update second derivatives using D2CorX and points    1    2
 DE= -5.40D-04 DEPred=-4.43D-04 R= 1.22D+00
 SS=  1.41D+00  RLast= 5.59D-02 DXNew= 5.0454D-01 1.6766D-01
 Trust test= 1.22D+00 RLast= 5.59D-02 DXMaxT set to 3.00D-01
 The second derivative matrix:
                          R1        R2        R3        R4        R5
           R1           0.33475
           R2           0.00092   0.88881
           R3           0.00104   0.08097   0.49443
           R4           0.00025   0.00011   0.00762   0.45784
           R5           0.00013  -0.00221   0.00582   0.00033   0.46019
           A1          -0.00085  -0.01140  -0.01637  -0.00352  -0.00174
           A2          -0.00075  -0.03034   0.00311  -0.00410  -0.00265
           A3           0.00081  -0.00727   0.03098   0.00244   0.00065
           A4          -0.00024  -0.03610   0.02362  -0.00262  -0.00230
           A5           0.00017   0.02406  -0.01534   0.00179   0.00155
           A6           0.00007   0.01203  -0.00828   0.00083   0.00075
           D1           0.00000   0.00000   0.00000   0.00000   0.00000
           D2           0.00000   0.00000   0.00000   0.00000   0.00000
           D3           0.00000   0.00000   0.00000   0.00000   0.00000
           D4           0.00000   0.00000   0.00000   0.00000   0.00000
                          A1        A2        A3        A4        A5
           A1           0.17220
           A2           0.01115   0.16470
           A3          -0.01114  -0.01504   0.25586
           A4           0.00416  -0.00506  -0.01166   0.14709
           A5          -0.00296   0.00316   0.00790   0.00846   0.15445
           A6          -0.00120   0.00190   0.00376   0.00444  -0.00292
           D1           0.00000   0.00000   0.00000   0.00000   0.00000
           D2           0.00000   0.00000   0.00000   0.00000   0.00000
           D3           0.00000   0.00000   0.00000   0.00000   0.00000
           D4           0.00000   0.00000   0.00000   0.00000   0.00000
                          A6        D1        D2        D3        D4
           A6           0.15848
           D1           0.00000   0.02237
           D2           0.00000   0.00000   0.02237
           D3           0.00000   0.00000   0.00000   0.02237
           D4           0.00000   0.00000   0.00000   0.00000   0.02237
 Use linear search instead of GDIIS.
     Eigenvalues ---    0.02237   0.02237   0.02237   0.12846   0.16000
     Eigenvalues ---    0.16033   0.24593   0.33476   0.45574   0.45937
     Eigenvalues ---    0.48933   0.907331000.000001000.000001000.00000
 RFO step:  Lambda=-7.30563249D-05 EMin= 2.23734717D-02
 Quartic linear search produced a step of  0.26991.
 Iteration  1 RMS(Cart)=  0.00718862 RMS(Int)=  0.00004405
 Iteration  2 RMS(Cart)=  0.00004452 RMS(Int)=  0.00000000
 Iteration  3 RMS(Cart)=  0.00000000 RMS(Int)=  0.00000000
 ClnCor:  largest displacement from symmetrization is 2.97D-11 for atom     2.
 Variable       Old X    -DE/DX   Delta X   Delta X   Delta X     New X
                                 (Linear)    (Quad)   (Total)
    R1        2.08317  -0.00004   0.00022  -0.00031  -0.00009   2.08308
    R2        2.32474   0.00344   0.00483   0.00122   0.00605   2.33079
    R3        2.55612  -0.00424  -0.00312  -0.00792  -0.01104   2.54508
    R4        1.91569   0.00003   0.00106  -0.00067   0.00039   1.91607
    R5        1.91097   0.00014   0.00076  -0.00016   0.00060   1.91156
    A1        2.13172  -0.00036  -0.00714   0.00197  -0.00517   2.12655
    A2        1.97187   0.00069  -0.00047   0.00545   0.00498   1.97685
    A3        2.17959  -0.00034   0.00762  -0.00743   0.00019   2.17978
    A4        2.08834   0.00193   0.00736   0.00999   0.01734   2.10568
    A5        2.12369  -0.00129  -0.00474  -0.00676  -0.01150   2.11219
    A6        2.07115  -0.00065  -0.00261  -0.00323  -0.00584   2.06531
    D1        3.14159   0.00000   0.00000   0.00000   0.00000   3.14159
    D2        0.00000   0.00000   0.00000   0.00000   0.00000   0.00000
    D3        0.00000   0.00000   0.00000   0.00000   0.00000   0.00000
    D4        3.14159   0.00000   0.00000   0.00000   0.00000   3.14159
         Item               Value     Threshold  Converged?
 Maximum Force            0.004236     0.000450     NO 
 RMS     Force            0.001556     0.000300     NO 
 Maximum Displacement     0.015370     0.001800     NO 
 RMS     Displacement     0.007190     0.001200     NO 
 Predicted change in Energy=-6.322705D-05
 GradGradGradGradGradGradGradGradGradGradGradGradGradGradGradGradGradGrad

                          Input orientation:                          
 ---------------------------------------------------------------------
 Center     Atomic      Atomic             Coordinates (Angstroms)
 Number     Number       Type             X           Y           Z
 ---------------------------------------------------------------------
      1          1           0        0.462434    0.000000   -1.415945
      2          6           0        0.573390    0.000000   -0.319228
      3          8           0        1.681346    0.000000    0.222726
      4          7           0       -0.604067    0.000000    0.334579
      5          1           0       -0.632458    0.000000    1.348123
      6          1           0       -1.480645    0.000000   -0.170255
 ---------------------------------------------------------------------
                    Distance matrix (angstroms):
                    1          2          3          4          5
     1  H    0.000000
     2  C    1.102316   0.000000
     3  O    2.042301   1.233402   0.000000
     4  N    2.049819   1.346800   2.288149   0.000000
     5  H    2.973023   2.057700   2.572977   1.013942   0.000000
     6  H    2.308095   2.059431   3.186318   1.011557   1.739222
                    6
     6  H    0.000000
 Stoichiometry    CH3NO
 Framework group  CS[SG(CH3NO)]
 Deg. of freedom     9
 Full point group                 CS      NOp   2
 Largest Abelian subgroup         CS      NOp   2
 Largest concise Abelian subgroup C1      NOp   1
                         Standard orientation:                         
 ---------------------------------------------------------------------
 Center     Atomic      Atomic             Coordinates (Angstroms)
 Number     Number       Type             X           Y           Z
 ---------------------------------------------------------------------
      1          1           0       -0.407727    1.441497    0.000000
      2          6           0        0.000000    0.417358    0.000000
      3          8           0        1.214159    0.200336    0.000000
      4          7           0       -0.952774   -0.534530    0.000000
      5          1           0       -0.701873   -1.516939    0.000000
      6          1           0       -1.934253   -0.289693    0.000000
 ---------------------------------------------------------------------
 Rotational constants (GHZ):     73.1077623     11.2707842      9.7652999
 Standard basis: 6-31+G(d) (6D, 7F)
 There are    48 symmetry adapted basis functions of A'  symmetry.
 There are    15 symmetry adapted basis functions of A"  symmetry.
 Integral buffers will be    262144 words long.
 Raffenetti 2 integral format.
 Two-electron integral symmetry is turned on.
    63 basis functions,   108 primitive gaussians,    63 cartesian basis functions
    12 alpha electrons       12 beta electrons
       nuclear repulsion energy        70.8931033670 Hartrees.
 NAtoms=    6 NActive=    6 NUniq=    6 SFac= 7.50D-01 NAtFMM=   80 NAOKFM=F Big=F
 ------------------------------------------------------------------------------
 Polarizable Continuum Model (PCM)
 =================================
 Model                : C-PCM.
 Atomic radii         : UFF (Universal Force Field).
 Polarization charges : Total charges.
 Charge compensation  : None.
 Solution method      : Matrix inversion.
 Cavity type          : Scaled VdW (van der Waals Surface) (Alpha=1.100).
 Cavity algorithm     : GePol (No added spheres)
                        Default sphere list used, NSphG=    6.
                        Lebedev-Laikov grids with approx.  5.0 points / Ang**2.
                        Smoothing algorithm: Karplus/York (Gamma=1.0000).
                        Polarization charges: spherical gaussians, with
                                              point-specific exponents (IZeta= 3).
                        Self-potential: point-specific (ISelfS= 7).
                        Self-field    : sphere-specific E.n sum rule (ISelfD= 2).
 1st derivatives      : Analytical E(r).r(x)/FMM algorithm (CHGder, D1EAlg=3).
                        Cavity 1st derivative terms included.
 Solvent              : Water, Eps=  78.355300 Eps(inf)=   1.777849
 ------------------------------------------------------------------------------
 Spheres list:
 ISph  on   Nord    Re0     Alpha      Xe            Ye            Ze
    1   H      1    1.443   1.100     -0.407727      1.441497      0.000000
    2   C      2    1.926   1.100      0.000000      0.417358      0.000000
    3   O      3    1.750   1.100      1.214159      0.200336      0.000000
    4   N      4    1.830   1.100     -0.952774     -0.534530      0.000000
    5   H      5    1.443   1.100     -0.701873     -1.516939      0.000000
    6   H      6    1.443   1.100     -1.934253     -0.289693      0.000000
 ------------------------------------------------------------------------------
 One-electron integrals computed using PRISM.
 NBasis=    63 RedAO= T  NBF=    48    15
 NBsUse=    63 1.00D-06 NBFU=    48    15
 Initial guess read from the read-write file.
 B after Tr=     0.000000    0.000000    0.000000
         Rot=    1.000000    0.000000    0.000000    0.000000 Ang=   0.00 deg.
 Initial guess orbital symmetries:
       Occupied  (A') (A') (A') (A') (A') (A') (A') (A') (A') (A")
                 (A") (A')
       Virtual   (A") (A') (A') (A') (A") (A') (A') (A") (A') (A')
                 (A') (A") (A') (A') (A') (A') (A') (A') (A") (A')
                 (A') (A') (A') (A") (A') (A') (A') (A") (A') (A')
                 (A') (A') (A") (A") (A') (A") (A') (A") (A') (A')
                 (A') (A") (A') (A') (A") (A') (A') (A') (A') (A')
                 (A')
 Requested convergence on RMS density matrix=1.00D-08 within 128 cycles.
 Requested convergence on MAX density matrix=1.00D-06.
 Requested convergence on             energy=1.00D-06.
 No special actions if energy rises.
 Keep R1 ints in memory in canonical form, NReq=5525132.
 Error on total polarization charges =  0.00977
 SCF Done:  E(RB3LYP) =  -169.915211937     A.U. after    9 cycles
             Convg  =    0.3527D-08             -V/T =  2.0098
 D1PCM: C-PCM CHGder 1st derivatives, ID1Alg=3 FixD1E=F DoIter=F DoCFld=F I1PDM=0.
 Calling FoFJK, ICntrl=      2127 FMM=F ISym2X=1 I1Cent= 0 IOpClX= 0 NMat=1 NMatS=1 NMatT=0.
 ***** Axes restored to original set *****
 -------------------------------------------------------------------
 Center     Atomic                   Forces (Hartrees/Bohr)
 Number     Number              X              Y              Z
 -------------------------------------------------------------------
      1        1          -0.000011923    0.000000000    0.000163369
      2        6           0.000090736    0.000000000    0.000018858
      3        8           0.000280558    0.000000000   -0.000011294
      4        7          -0.000130620    0.000000000   -0.000055535
      5        1          -0.000029935    0.000000000   -0.000271388
      6        1          -0.000198816    0.000000000    0.000155989
 -------------------------------------------------------------------
 Cartesian Forces:  Max     0.000280558 RMS     0.000123111

 GradGradGradGradGradGradGradGradGradGradGradGradGradGradGradGradGradGrad
 Berny optimization.
 Using GEDIIS/GDIIS optimizer.
 Internal  Forces:  Max     0.000285115 RMS     0.000169746
 Search for a local minimum.
 Step number   3 out of a maximum of   25
 All quantities printed in internal units (Hartrees-Bohrs-Radians)
 Mixed Optimization -- En-DIIS/RFO-DIIS
 Update second derivatives using D2CorX and points    1    2    3
 DE= -6.13D-05 DEPred=-6.32D-05 R= 9.69D-01
 SS=  1.41D+00  RLast= 2.60D-02 DXNew= 5.0454D-01 7.8095D-02
 Trust test= 9.69D-01 RLast= 2.60D-02 DXMaxT set to 3.00D-01
 The second derivative matrix:
                          R1        R2        R3        R4        R5
           R1           0.33495
           R2           0.00592   0.86638
           R3          -0.00385   0.08663   0.50290
           R4           0.00085   0.00789  -0.00077   0.45929
           R5           0.00031  -0.00583   0.00846   0.00047   0.45991
           A1          -0.00168   0.00304  -0.02660  -0.00428  -0.00056
           A2          -0.00001  -0.01688  -0.01056  -0.00213  -0.00227
           A3           0.00110  -0.00505   0.02822   0.00307   0.00063
           A4           0.00221  -0.03810   0.01863   0.00164  -0.00358
           A5          -0.00171   0.01880  -0.00562  -0.00181   0.00216
           A6          -0.00050   0.01930  -0.01302   0.00018   0.00142
           D1           0.00000   0.00000   0.00000   0.00000   0.00000
           D2           0.00000   0.00000   0.00000   0.00000   0.00000
           D3           0.00000   0.00000   0.00000   0.00000   0.00000
           D4           0.00000   0.00000   0.00000   0.00000   0.00000
                          A1        A2        A3        A4        A5
           A1           0.16727
           A2           0.00929   0.16724
           A3          -0.01112  -0.01412   0.25610
           A4           0.00910   0.00183  -0.01025   0.14996
           A5          -0.00514  -0.00237   0.00658   0.00334   0.16032
           A6          -0.00396   0.00054   0.00367   0.00670  -0.00366
           D1           0.00000   0.00000   0.00000   0.00000   0.00000
           D2           0.00000   0.00000   0.00000   0.00000   0.00000
           D3           0.00000   0.00000   0.00000   0.00000   0.00000
           D4           0.00000   0.00000   0.00000   0.00000   0.00000
                          A6        D1        D2        D3        D4
           A6           0.15697
           D1           0.00000   0.02237
           D2           0.00000   0.00000   0.02237
           D3           0.00000   0.00000   0.00000   0.02237
           D4           0.00000   0.00000   0.00000   0.00000   0.02237
 Use linear search instead of GDIIS.
     Eigenvalues ---    0.02237   0.02237   0.02237   0.13283   0.16031
     Eigenvalues ---    0.16243   0.24435   0.33488   0.45719   0.45964
     Eigenvalues ---    0.49471   0.888731000.000001000.000001000.00000
 RFO step:  Lambda=-1.21173210D-06 EMin= 2.23734717D-02
 Quartic linear search produced a step of -0.04006.
 Iteration  1 RMS(Cart)=  0.00075961 RMS(Int)=  0.00000034
 Iteration  2 RMS(Cart)=  0.00000031 RMS(Int)=  0.00000000
 ClnCor:  largest displacement from symmetrization is 1.67D-12 for atom     2.
 Variable       Old X    -DE/DX   Delta X   Delta X   Delta X     New X
                                 (Linear)    (Quad)   (Total)
    R1        2.08308  -0.00016   0.00000  -0.00047  -0.00047   2.08261
    R2        2.33079   0.00024  -0.00024   0.00046   0.00022   2.33101
    R3        2.54508   0.00023   0.00044  -0.00011   0.00034   2.54542
    R4        1.91607  -0.00027  -0.00002  -0.00057  -0.00059   1.91548
    R5        1.91156   0.00009  -0.00002   0.00021   0.00019   1.91175
    A1        2.12655  -0.00009   0.00021  -0.00045  -0.00024   2.12631
    A2        1.97685  -0.00016  -0.00020  -0.00045  -0.00065   1.97620
    A3        2.17978   0.00024  -0.00001   0.00090   0.00089   2.18067
    A4        2.10568  -0.00011  -0.00069   0.00014  -0.00056   2.10513
    A5        2.11219   0.00029   0.00046   0.00118   0.00164   2.11384
    A6        2.06531  -0.00017   0.00023  -0.00132  -0.00109   2.06422
    D1        3.14159   0.00000   0.00000   0.00000   0.00000   3.14159
    D2        0.00000   0.00000   0.00000   0.00000   0.00000   0.00000
    D3        0.00000   0.00000   0.00000   0.00000   0.00000   0.00000
    D4        3.14159   0.00000   0.00000   0.00000   0.00000   3.14159
         Item               Value     Threshold  Converged?
 Maximum Force            0.000285     0.000450     YES
 RMS     Force            0.000170     0.000300     YES
 Maximum Displacement     0.001572     0.001800     YES
 RMS     Displacement     0.000760     0.001200     YES
 Predicted change in Energy=-7.249879D-07
 Optimization completed.
    -- Stationary point found.
                           ----------------------------
                           !   Optimized Parameters   !
                           ! (Angstroms and Degrees)  !
 --------------------------                            --------------------------
 ! Name  Definition              Value          Derivative Info.                !
 --------------------------------------------------------------------------------
 ! R1    R(1,2)                  1.1023         -DE/DX =   -0.0002              !
 ! R2    R(2,3)                  1.2334         -DE/DX =    0.0002              !
 ! R3    R(2,4)                  1.3468         -DE/DX =    0.0002              !
 ! R4    R(4,5)                  1.0139         -DE/DX =   -0.0003              !
 ! R5    R(4,6)                  1.0116         -DE/DX =    0.0001              !
 ! A1    A(1,2,3)              121.8425         -DE/DX =   -0.0001              !
 ! A2    A(1,2,4)              113.265          -DE/DX =   -0.0002              !
 ! A3    A(3,2,4)              124.8925         -DE/DX =    0.0002              !
 ! A4    A(2,4,5)              120.6466         -DE/DX =   -0.0001              !
 ! A5    A(2,4,6)              121.0197         -DE/DX =    0.0003              !
 ! A6    A(5,4,6)              118.3337         -DE/DX =   -0.0002              !
 ! D1    D(1,2,4,5)            180.0            -DE/DX =    0.0                 !
 ! D2    D(1,2,4,6)              0.0            -DE/DX =    0.0                 !
 ! D3    D(3,2,4,5)              0.0            -DE/DX =    0.0                 !
 ! D4    D(3,2,4,6)            180.0            -DE/DX =    0.0                 !
 --------------------------------------------------------------------------------
 GradGradGradGradGradGradGradGradGradGradGradGradGradGradGradGradGradGrad

                          Input orientation:                          
 ---------------------------------------------------------------------
 Center     Atomic      Atomic             Coordinates (Angstroms)
 Number     Number       Type             X           Y           Z
 ---------------------------------------------------------------------
      1          1           0        0.462434    0.000000   -1.415945
      2          6           0        0.573390    0.000000   -0.319228
      3          8           0        1.681346    0.000000    0.222726
      4          7           0       -0.604067    0.000000    0.334579
      5          1           0       -0.632458    0.000000    1.348123
      6          1           0       -1.480645    0.000000   -0.170255
 ---------------------------------------------------------------------
                    Distance matrix (angstroms):
                    1          2          3          4          5
     1  H    0.000000
     2  C    1.102316   0.000000
     3  O    2.042301   1.233402   0.000000
     4  N    2.049819   1.346800   2.288149   0.000000
     5  H    2.973023   2.057700   2.572977   1.013942   0.000000
     6  H    2.308095   2.059431   3.186318   1.011557   1.739222
                    6
     6  H    0.000000
 Stoichiometry    CH3NO
 Framework group  CS[SG(CH3NO)]
 Deg. of freedom     9
 Full point group                 CS      NOp   2
 Largest Abelian subgroup         CS      NOp   2
 Largest concise Abelian subgroup C1      NOp   1
                         Standard orientation:                         
 ---------------------------------------------------------------------
 Center     Atomic      Atomic             Coordinates (Angstroms)
 Number     Number       Type             X           Y           Z
 ---------------------------------------------------------------------
      1          1           0       -0.407727    1.441497    0.000000
      2          6           0        0.000000    0.417358    0.000000
      3          8           0        1.214159    0.200336    0.000000
      4          7           0       -0.952774   -0.534530    0.000000
      5          1           0       -0.701873   -1.516939    0.000000
      6          1           0       -1.934253   -0.289693    0.000000
 ---------------------------------------------------------------------
 Rotational constants (GHZ):     73.1077623     11.2707842      9.7652999

 **********************************************************************

            Population analysis using the SCF density.

 **********************************************************************

 Orbital symmetries:
       Occupied  (A') (A') (A') (A') (A') (A') (A') (A') (A') (A")
                 (A") (A')
       Virtual   (A") (A') (A') (A') (A") (A') (A') (A") (A') (A')
                 (A') (A") (A') (A') (A') (A') (A') (A') (A") (A')
                 (A') (A') (A') (A") (A') (A') (A') (A") (A') (A')
                 (A') (A') (A") (A") (A') (A") (A') (A") (A') (A')
                 (A') (A") (A') (A') (A") (A') (A') (A') (A') (A')
                 (A')
 The electronic state is 1-A'.
 Alpha  occ. eigenvalues --  -19.14402 -14.37828 -10.30636  -1.04928  -0.92263
 Alpha  occ. eigenvalues --   -0.63920  -0.56416  -0.49560  -0.43260  -0.41894
 Alpha  occ. eigenvalues --   -0.29033  -0.28033
 Alpha virt. eigenvalues --    0.00090   0.01052   0.03479   0.03934   0.06199
 Alpha virt. eigenvalues --    0.10613   0.11078   0.14642   0.16820   0.19172
 Alpha virt. eigenvalues --    0.20669   0.22676   0.23146   0.25069   0.27511
 Alpha virt. eigenvalues --    0.31508   0.35604   0.45669   0.64379   0.71355
 Alpha virt. eigenvalues --    0.75735   0.82331   0.88468   0.88673   0.98234
 Alpha virt. eigenvalues --    0.98480   1.07805   1.20647   1.22269   1.25534
 Alpha virt. eigenvalues --    1.29822   1.31309   1.36668   1.45163   1.56895
 Alpha virt. eigenvalues --    1.67551   1.78333   1.82712   1.88083   2.03848
 Alpha virt. eigenvalues --    2.11697   2.28626   2.30704   2.49628   2.60811
 Alpha virt. eigenvalues --    2.68572   2.94189   3.05041   3.87523   4.11686
 Alpha virt. eigenvalues --    4.31474
          Condensed to atoms (all electrons):
              1          2          3          4          5          6
     1  H    0.567133   0.435089  -0.052556  -0.144243   0.004298   0.005225
     2  C    0.435089   4.663879   0.413407   0.210867  -0.005714   0.005419
     3  O   -0.052556   0.413407   8.370720  -0.147948   0.006760   0.008297
     4  N   -0.144243   0.210867  -0.147948   7.239683   0.283491   0.266904
     5  H    0.004298  -0.005714   0.006760   0.283491   0.297729  -0.009780
     6  H    0.005225   0.005419   0.008297   0.266904  -0.009780   0.301828
 Mulliken atomic charges:
              1
     1  H    0.185055
     2  C    0.277053
     3  O   -0.598679
     4  N   -0.708753
     5  H    0.423217
     6  H    0.422108
 Sum of Mulliken atomic charges =   0.00000
 Mulliken charges with hydrogens summed into heavy atoms:
              1
     2  C    0.462108
     3  O   -0.598679
     4  N    0.136571
 Sum of Mulliken charges with hydrogens summed into heavy atoms =   0.00000
 Electronic spatial extent (au):  <R**2>=            147.8410
 Charge=              0.0000 electrons
 Dipole moment (field-independent basis, Debye):
    X=             -5.3342    Y=             -0.6834    Z=              0.0000  Tot=              5.3778
 Quadrupole moment (field-independent basis, Debye-Ang):
   XX=            -19.0382   YY=            -14.5603   ZZ=            -19.3444
   XY=              0.0451   XZ=              0.0000   YZ=              0.0000
 Traceless Quadrupole moment (field-independent basis, Debye-Ang):
   XX=             -1.3906   YY=              3.0873   ZZ=             -1.6967
   XY=              0.0451   XZ=              0.0000   YZ=              0.0000
 Octapole moment (field-independent basis, Debye-Ang**2):
  XXX=            -17.5422  YYY=             -4.8484  ZZZ=              0.0000  XYY=             -3.4645
  XXY=             -2.6664  XXZ=              0.0000  XZZ=              0.7063  YZZ=              0.3566
  YYZ=              0.0000  XYZ=              0.0000
 Hexadecapole moment (field-independent basis, Debye-Ang**3):
 XXXX=           -102.6018 YYYY=            -38.3330 ZZZZ=            -19.8196 XXXY=            -13.5933
 XXXZ=              0.0000 YYYX=            -11.4647 YYYZ=              0.0000 ZZZX=              0.0000
 ZZZY=              0.0000 XXYY=            -27.6882 XXZZ=            -24.4537 YYZZ=            -12.2077
 XXYZ=              0.0000 YYXZ=              0.0000 ZZXY=             -5.4945
 N-N= 7.089310336699D+01 E-N=-5.393351067548D+02  KE= 1.682644680004D+02
 Symmetry A'   KE= 1.612842716375D+02
 Symmetry A"   KE= 6.980196362884D+00
 1|1|UNPC-DESKTOP-FUV5GU1|FOpt|RB3LYP|6-31+G(d)|C1H3N1O1|USER01|27-Jun-
 2024|0||# opt freq b3lyp/6-31+g(d) scrf=(cpcm,solvent=water) geom=conn
 ectivity||M0001||0,1|H,0.4624340407,0.,-1.4159454437|C,0.5733904917,0.
 ,-0.3192275712|O,1.6813461058,0.,0.2227262068|N,-0.6040670251,0.,0.334
 5788212|H,-0.6324584444,0.,1.3481231349|H,-1.4806451687,0.,-0.17025514
 8||Version=IA32W-G09RevA.02|State=1-A'|HF=-169.9152119|RMSD=3.527e-009
 |RMSF=1.231e-004|Dipole=-2.091823,0.,-0.3174776|Quadrupole=-0.7653713,
 -1.261467,2.0268383,0.,-0.907172,0.|PG=CS [SG(C1H3N1O1)]||@


 IF AT FIRST YOU DON'T SUCCEED, TRY, TRY AGAIN.
 THEN GIVE UP;
 THERE'S NO USE BEING A DAMN FOOL ABOUT IT.

                                 -- W. C. FIELDS
 Job cpu time:  0 days  0 hours  0 minutes 17.0 seconds.
 File lengths (MBytes):  RWF=     15 Int=      0 D2E=      0 Chk=      2 Scr=      1
 Normal termination of Gaussian 09 at Thu Jun 27 20:19:27 2024.
 Link1:  Proceeding to internal job step number  2.
 ---------------------------------------------------------------------
 #N Geom=AllCheck Guess=TCheck SCRF=Check GenChk RB3LYP/6-31+G(d) Freq
 ---------------------------------------------------------------------
 1/10=4,29=7,30=1,38=1,40=1/1,3;
 2/12=2,40=1/2;
 3/5=1,6=6,7=11,11=2,14=-4,16=1,25=1,30=1,70=2,71=2,72=1,74=-5,116=1/1,2,3;
 4/5=101/1;
 5/5=2,53=1,98=1/2;
 8/6=4,10=90,11=11/1;
 11/6=1,8=1,9=11,15=111,16=1/1,2,10;
 10/6=1/2;
 6/7=2,8=2,9=2,10=2,18=1,28=1/1;
 7/8=1,10=1,25=1/1,2,3,16;
 1/10=4,30=1/3;
 99//99;
 -----
 M0001
 -----
 Redundant internal coordinates taken from checkpoint file:
 C:\Users\user01\Desktop\Formamide\Formamide-C1_Water.chk
 Charge =  0 Multiplicity = 1
 H,0,0.4624340407,0.,-1.4159454437
 C,0,0.5733904917,0.,-0.3192275712
 O,0,1.6813461058,0.,0.2227262068
 N,0,-0.6040670251,0.,0.3345788212
 H,0,-0.6324584444,0.,1.3481231349
 H,0,-1.4806451687,0.,-0.170255148
 Recover connectivity data from disk.

 GradGradGradGradGradGradGradGradGradGradGradGradGradGradGradGradGradGrad
 Berny optimization.
 Initialization pass.
                           ----------------------------
                           !    Initial Parameters    !
                           ! (Angstroms and Degrees)  !
 --------------------------                            --------------------------
 ! Name  Definition              Value          Derivative Info.                !
 --------------------------------------------------------------------------------
 ! R1    R(1,2)                  1.1023         calculate D2E/DX2 analytically  !
 ! R2    R(2,3)                  1.2334         calculate D2E/DX2 analytically  !
 ! R3    R(2,4)                  1.3468         calculate D2E/DX2 analytically  !
 ! R4    R(4,5)                  1.0139         calculate D2E/DX2 analytically  !
 ! R5    R(4,6)                  1.0116         calculate D2E/DX2 analytically  !
 ! A1    A(1,2,3)              121.8425         calculate D2E/DX2 analytically  !
 ! A2    A(1,2,4)              113.265          calculate D2E/DX2 analytically  !
 ! A3    A(3,2,4)              124.8925         calculate D2E/DX2 analytically  !
 ! A4    A(2,4,5)              120.6466         calculate D2E/DX2 analytically  !
 ! A5    A(2,4,6)              121.0197         calculate D2E/DX2 analytically  !
 ! A6    A(5,4,6)              118.3337         calculate D2E/DX2 analytically  !
 ! D1    D(1,2,4,5)            180.0            calculate D2E/DX2 analytically  !
 ! D2    D(1,2,4,6)              0.0            calculate D2E/DX2 analytically  !
 ! D3    D(3,2,4,5)              0.0            calculate D2E/DX2 analytically  !
 ! D4    D(3,2,4,6)            180.0            calculate D2E/DX2 analytically  !
 --------------------------------------------------------------------------------
 Trust Radius=3.00D-01 FncErr=1.00D-07 GrdErr=1.00D-07
 Number of steps in this run=   2 maximum allowed number of steps=   2.
 GradGradGradGradGradGradGradGradGradGradGradGradGradGradGradGradGradGrad

                          Input orientation:                          
 ---------------------------------------------------------------------
 Center     Atomic      Atomic             Coordinates (Angstroms)
 Number     Number       Type             X           Y           Z
 ---------------------------------------------------------------------
      1          1           0        0.462434    0.000000   -1.415945
      2          6           0        0.573390    0.000000   -0.319228
      3          8           0        1.681346    0.000000    0.222726
      4          7           0       -0.604067    0.000000    0.334579
      5          1           0       -0.632458    0.000000    1.348123
      6          1           0       -1.480645    0.000000   -0.170255
 ---------------------------------------------------------------------
                    Distance matrix (angstroms):
                    1          2          3          4          5
     1  H    0.000000
     2  C    1.102316   0.000000
     3  O    2.042301   1.233402   0.000000
     4  N    2.049819   1.346800   2.288149   0.000000
     5  H    2.973023   2.057700   2.572977   1.013942   0.000000
     6  H    2.308095   2.059431   3.186318   1.011557   1.739222
                    6
     6  H    0.000000
 Stoichiometry    CH3NO
 Framework group  CS[SG(CH3NO)]
 Deg. of freedom     9
 Full point group                 CS      NOp   2
 Largest Abelian subgroup         CS      NOp   2
 Largest concise Abelian subgroup C1      NOp   1
                         Standard orientation:                         
 ---------------------------------------------------------------------
 Center     Atomic      Atomic             Coordinates (Angstroms)
 Number     Number       Type             X           Y           Z
 ---------------------------------------------------------------------
      1          1           0       -0.407727    1.441497    0.000000
      2          6           0        0.000000    0.417358    0.000000
      3          8           0        1.214159    0.200336    0.000000
      4          7           0       -0.952774   -0.534530    0.000000
      5          1           0       -0.701873   -1.516939    0.000000
      6          1           0       -1.934253   -0.289693    0.000000
 ---------------------------------------------------------------------
 Rotational constants (GHZ):     73.1077623     11.2707842      9.7652999
 Standard basis: 6-31+G(d) (6D, 7F)
 There are    48 symmetry adapted basis functions of A'  symmetry.
 There are    15 symmetry adapted basis functions of A"  symmetry.
 Integral buffers will be    262144 words long.
 Raffenetti 2 integral format.
 Two-electron integral symmetry is turned on.
    63 basis functions,   108 primitive gaussians,    63 cartesian basis functions
    12 alpha electrons       12 beta electrons
       nuclear repulsion energy        70.8931033670 Hartrees.
 NAtoms=    6 NActive=    6 NUniq=    6 SFac= 7.50D-01 NAtFMM=   80 NAOKFM=F Big=F
 ------------------------------------------------------------------------------
 Polarizable Continuum Model (PCM)
 =================================
 Model                : C-PCM.
 Atomic radii         : UFF (Universal Force Field).
 Polarization charges : Total charges.
 Charge compensation  : None.
 Solution method      : Matrix inversion.
 Cavity type          : Scaled VdW (van der Waals Surface) (Alpha=1.100).
 Cavity algorithm     : GePol (No added spheres)
                        Default sphere list used, NSphG=    6.
                        Lebedev-Laikov grids with approx.  5.0 points / Ang**2.
                        Smoothing algorithm: Karplus/York (Gamma=1.0000).
                        Polarization charges: spherical gaussians, with
                                              point-specific exponents (IZeta= 3).
                        Self-potential: point-specific (ISelfS= 7).
                        Self-field    : sphere-specific E.n sum rule (ISelfD= 2).
 1st derivatives      : Analytical E(r).r(x)/FMM algorithm (CHGder, D1EAlg=3).
                        Cavity 1st derivative terms included.
 2nd derivatives      : Analytical E(r).r(xy)/FMM algorithm (CHGder, D2EAlg=3).
                        Cavity 2nd derivative terms included.
 Solvent              : Water, Eps=  78.355300 Eps(inf)=   1.777849
 ------------------------------------------------------------------------------
 Spheres list:
 ISph  on   Nord    Re0     Alpha      Xe            Ye            Ze
    1   H      1    1.443   1.100     -0.407727      1.441497      0.000000
    2   C      2    1.925   1.100      0.000000      0.417358      0.000000
    3   O      3    1.750   1.100      1.214159      0.200336      0.000000
    4   N      4    1.830   1.100     -0.952774     -0.534530      0.000000
    5   H      5    1.443   1.100     -0.701873     -1.516939      0.000000
    6   H      6    1.443   1.100     -1.934253     -0.289693      0.000000
 ------------------------------------------------------------------------------
 One-electron integrals computed using PRISM.
 NBasis=    63 RedAO= T  NBF=    48    15
 NBsUse=    63 1.00D-06 NBFU=    48    15
 Initial guess read from the checkpoint file:  C:\Users\user01\Desktop\Formamide\
 Formamide-C1_Water.chk
 B after Tr=     0.000000    0.000000    0.000000
         Rot=    1.000000    0.000000    0.000000    0.000000 Ang=   0.00 deg.
 Initial guess orbital symmetries:
       Occupied  (A') (A') (A') (A') (A') (A') (A') (A') (A') (A")
                 (A") (A')
       Virtual   (A") (A') (A') (A') (A") (A') (A') (A") (A') (A')
                 (A') (A") (A') (A') (A') (A') (A') (A') (A") (A')
                 (A') (A') (A') (A") (A') (A') (A') (A") (A') (A')
                 (A') (A') (A") (A") (A') (A") (A') (A") (A') (A')
                 (A') (A") (A') (A') (A") (A') (A') (A') (A') (A')
                 (A')
 Requested convergence on RMS density matrix=1.00D-08 within 128 cycles.
 Requested convergence on MAX density matrix=1.00D-06.
 Requested convergence on             energy=1.00D-06.
 No special actions if energy rises.
 Keep R1 ints in memory in canonical form, NReq=5525132.
 Error on total polarization charges =  0.00977
 SCF Done:  E(RB3LYP) =  -169.915211937     A.U. after    1 cycles
             Convg  =    0.5408D-09             -V/T =  2.0098
 Range of M.O.s used for correlation:     1    63
 NBasis=    63 NAE=    12 NBE=    12 NFC=     0 NFV=     0
 NROrb=     63 NOA=    12 NOB=    12 NVA=    51 NVB=    51
 Symmetrizing basis deriv contribution to polar:
 IMax=3 JMax=2 DiffMx= 0.00D+00
 G2DrvN: will do     7 centers at a time, making    1 passes doing MaxLOS=2.
 Calling FoFCou, ICntrl=  3107 FMM=F I1Cent=   0 AccDes= 0.00D+00.
 FoFDir/FoFCou used for L=0 through L=2.
 G2PCM: DoFxE=T DoFxN=T DoGrad=T DoPD/DQ/DG=FFF NFrqRd=   0 IEInf=0 DoCFld=F IF1Alg=4.
 End of G2Drv Frequency-dependent properties file   721 does not exist.
 End of G2Drv Frequency-dependent properties file   722 does not exist.
          IDoAtm=111111
 NEqPCM:  Using equilibrium solvation (IEInf=0, Eps=  78.3553, EpsInf=   1.7778)
          Differentiating once with respect to electric field.
                with respect to dipole field.
          Differentiating once with respect to nuclear coordinates.
          Keep R1 ints in memory in canonical form, NReq=2854469.
          There are    21 degrees of freedom in the 1st order CPHF.  IDoFFX=5.
     18 vectors produced by pass  0 Test12= 2.91D-15 4.76D-09 XBig12= 3.04D+01 4.19D+00.
 AX will form    18 AO Fock derivatives at one time.
     18 vectors produced by pass  1 Test12= 2.91D-15 4.76D-09 XBig12= 9.55D+00 9.34D-01.
     18 vectors produced by pass  2 Test12= 2.91D-15 4.76D-09 XBig12= 5.20D-02 6.29D-02.
     18 vectors produced by pass  3 Test12= 2.91D-15 4.76D-09 XBig12= 2.60D-04 3.89D-03.
     18 vectors produced by pass  4 Test12= 2.91D-15 4.76D-09 XBig12= 4.81D-07 2.02D-04.
     13 vectors produced by pass  5 Test12= 2.91D-15 4.76D-09 XBig12= 3.45D-10 3.72D-06.
      3 vectors produced by pass  6 Test12= 2.91D-15 4.76D-09 XBig12= 1.68D-13 1.01D-07.
 Inverted reduced A of dimension   106 with in-core refinement.
 Isotropic polarizability for W=    0.000000       29.99 Bohr**3.
 End of Minotr Frequency-dependent properties file   721 does not exist.
 End of Minotr Frequency-dependent properties file   722 does not exist.

 **********************************************************************

            Population analysis using the SCF density.

 **********************************************************************

 Orbital symmetries:
       Occupied  (A') (A') (A') (A') (A') (A') (A') (A') (A') (A")
                 (A") (A')
       Virtual   (A") (A') (A') (A') (A") (A') (A') (A") (A') (A')
                 (A') (A") (A') (A') (A') (A') (A') (A') (A") (A')
                 (A') (A') (A') (A") (A') (A') (A') (A") (A') (A')
                 (A') (A') (A") (A") (A') (A") (A') (A") (A') (A')
                 (A') (A") (A') (A') (A") (A') (A') (A') (A') (A')
                 (A')
 The electronic state is 1-A'.
 Alpha  occ. eigenvalues --  -19.14402 -14.37828 -10.30636  -1.04928  -0.92263
 Alpha  occ. eigenvalues --   -0.63920  -0.56416  -0.49560  -0.43260  -0.41894
 Alpha  occ. eigenvalues --   -0.29033  -0.28033
 Alpha virt. eigenvalues --    0.00090   0.01052   0.03479   0.03934   0.06199
 Alpha virt. eigenvalues --    0.10613   0.11078   0.14642   0.16820   0.19172
 Alpha virt. eigenvalues --    0.20669   0.22676   0.23146   0.25069   0.27511
 Alpha virt. eigenvalues --    0.31508   0.35604   0.45669   0.64379   0.71355
 Alpha virt. eigenvalues --    0.75735   0.82331   0.88468   0.88673   0.98234
 Alpha virt. eigenvalues --    0.98480   1.07805   1.20647   1.22269   1.25534
 Alpha virt. eigenvalues --    1.29822   1.31309   1.36668   1.45163   1.56895
 Alpha virt. eigenvalues --    1.67551   1.78333   1.82712   1.88083   2.03848
 Alpha virt. eigenvalues --    2.11697   2.28626   2.30704   2.49628   2.60811
 Alpha virt. eigenvalues --    2.68572   2.94189   3.05041   3.87523   4.11686
 Alpha virt. eigenvalues --    4.31474
          Condensed to atoms (all electrons):
              1          2          3          4          5          6
     1  H    0.567133   0.435089  -0.052556  -0.144243   0.004298   0.005225
     2  C    0.435089   4.663879   0.413407   0.210867  -0.005714   0.005419
     3  O   -0.052556   0.413407   8.370720  -0.147948   0.006760   0.008297
     4  N   -0.144243   0.210867  -0.147948   7.239683   0.283490   0.266904
     5  H    0.004298  -0.005714   0.006760   0.283490   0.297729  -0.009780
     6  H    0.005225   0.005419   0.008297   0.266904  -0.009780   0.301828
 Mulliken atomic charges:
              1
     1  H    0.185055
     2  C    0.277053
     3  O   -0.598679
     4  N   -0.708753
     5  H    0.423217
     6  H    0.422108
 Sum of Mulliken atomic charges =   0.00000
 Mulliken charges with hydrogens summed into heavy atoms:
              1
     2  C    0.462108
     3  O   -0.598679
     4  N    0.136571
 Sum of Mulliken charges with hydrogens summed into heavy atoms =   0.00000
 APT atomic charges:
              1
     1  H   -0.022459
     2  C    1.368617
     3  O   -1.045613
     4  N   -0.878032
     5  H    0.278987
     6  H    0.298500
 Sum of APT charges=   0.00000
 APT Atomic charges with hydrogens summed into heavy atoms:
              1
     1  H    0.000000
     2  C    1.346158
     3  O   -1.045613
     4  N   -0.300545
     5  H    0.000000
     6  H    0.000000
 Sum of APT charges=   0.00000
 Electronic spatial extent (au):  <R**2>=            147.8410
 Charge=              0.0000 electrons
 Dipole moment (field-independent basis, Debye):
    X=             -5.3342    Y=             -0.6834    Z=              0.0000  Tot=              5.3778
 Quadrupole moment (field-independent basis, Debye-Ang):
   XX=            -19.0382   YY=            -14.5603   ZZ=            -19.3444
   XY=              0.0451   XZ=              0.0000   YZ=              0.0000
 Traceless Quadrupole moment (field-independent basis, Debye-Ang):
   XX=             -1.3906   YY=              3.0873   ZZ=             -1.6967
   XY=              0.0451   XZ=              0.0000   YZ=              0.0000
 Octapole moment (field-independent basis, Debye-Ang**2):
  XXX=            -17.5422  YYY=             -4.8484  ZZZ=              0.0000  XYY=             -3.4645
  XXY=             -2.6664  XXZ=              0.0000  XZZ=              0.7063  YZZ=              0.3566
  YYZ=              0.0000  XYZ=              0.0000
 Hexadecapole moment (field-independent basis, Debye-Ang**3):
 XXXX=           -102.6018 YYYY=            -38.3330 ZZZZ=            -19.8196 XXXY=            -13.5933
 XXXZ=              0.0000 YYYX=            -11.4647 YYYZ=              0.0000 ZZZX=              0.0000
 ZZZY=              0.0000 XXYY=            -27.6882 XXZZ=            -24.4537 YYZZ=            -12.2077
 XXYZ=              0.0000 YYXZ=              0.0000 ZZXY=             -5.4945
 N-N= 7.089310336699D+01 E-N=-5.393351068642D+02  KE= 1.682644680534D+02
 Symmetry A'   KE= 1.612842716624D+02
 Symmetry A"   KE= 6.980196390957D+00
  Exact polarizability:  41.304   3.104  29.409   0.000   0.000  19.269
 Approx polarizability:  48.866   3.749  30.778   0.000   0.000  20.302
 D2PCM: C-PCM CHGder 2nd derivatives, FixD1E=F FixD2E=F DoIter=F DoCFld=F I1PDM=0
 Calling FoFJK, ICntrl=    100127 FMM=F ISym2X=1 I1Cent= 0 IOpClX= 0 NMat=1 NMatS=1 NMatT=0.
 Full mass-weighted force constant matrix:
 Low frequencies ---   -0.0012   -0.0011   -0.0009    4.7341   42.2768   46.6957
 Low frequencies ---  318.7472  575.3564  657.6517
 Diagonal vibrational polarizability:
        9.6837676       3.6753672      96.9466672
 Harmonic frequencies (cm**-1), IR intensities (KM/Mole), Raman scattering
 activities (A**4/AMU), depolarization ratios for plane and unpolarized
 incident light, reduced masses (AMU), force constants (mDyne/A),
 and normal coordinates:
                     1                      2                      3
                    A"                     A'                     A"
 Frequencies --   318.7469               575.3511               657.6468
 Red. masses --     1.2393                 2.5698                 1.2160
 Frc consts  --     0.0742                 0.5012                 0.3099
 IR Inten    --   362.0694                18.5128                15.1112
  Atom  AN      X      Y      Z        X      Y      Z        X      Y      Z
     1   1     0.00   0.00   0.00    -0.04  -0.24   0.00     0.00   0.00   0.19
     2   6     0.00   0.00   0.02     0.07  -0.20   0.00     0.00   0.00   0.11
     3   8     0.00   0.00   0.01     0.14   0.17   0.00     0.00   0.00  -0.06
     4   7     0.00   0.00  -0.13    -0.16  -0.03   0.00     0.00   0.00  -0.04
     5   1     0.00   0.00   0.59    -0.74  -0.18   0.00     0.00   0.00   0.72
     6   1     0.00   0.00   0.80    -0.03   0.50   0.00     0.00   0.00  -0.65
                     4                      5                      6
                    A"                     A'                     A'
 Frequencies --  1051.8637              1078.6993              1300.2220
 Red. masses --     1.5052                 1.6849                 2.8162
 Frc consts  --     0.9812                 1.1551                 2.8051
 IR Inten    --     4.2437                 2.4527               156.8552
  Atom  AN      X      Y      Z        X      Y      Z        X      Y      Z
     1   1     0.00   0.00   0.96    -0.28  -0.10   0.00     0.27   0.39   0.00
     2   6     0.00   0.00  -0.20    -0.03  -0.01   0.00     0.08   0.30   0.00
     3   8     0.00   0.00   0.05    -0.12  -0.02   0.00     0.02  -0.04   0.00
     4   7     0.00   0.00   0.03     0.19   0.00   0.00    -0.06  -0.22   0.00
     5   1     0.00   0.00   0.19    -0.46  -0.15   0.00    -0.69  -0.39   0.00
     6   1     0.00   0.00  -0.01     0.37   0.70   0.00    -0.02   0.01   0.00
                     7                      8                      9
                    A'                     A'                     A'
 Frequencies --  1426.6970              1634.6949              1726.4910
 Red. masses --     1.2650                 1.2555                 5.4915
 Frc consts  --     1.5170                 1.9767                 9.6443
 IR Inten    --    33.5932                69.4807               834.2834
  Atom  AN      X      Y      Z        X      Y      Z        X      Y      Z
     1   1     0.94   0.26   0.00     0.02  -0.06   0.00    -0.48  -0.36   0.00
     2   6     0.01  -0.08   0.00     0.05  -0.04   0.00     0.53   0.00   0.00
     3   8    -0.09   0.05   0.00    -0.05   0.01   0.00    -0.28   0.04   0.00
     4   7     0.02  -0.02   0.00     0.07   0.09   0.00    -0.12  -0.04   0.00
     5   1     0.07   0.00   0.00    -0.64  -0.09   0.00     0.48   0.10   0.00
     6   1     0.06   0.12   0.00    -0.14  -0.74   0.00    -0.09   0.12   0.00
                    10                     11                     12
                    A'                     A'                     A'
 Frequencies --  3037.3050              3565.5173              3693.3761
 Red. masses --     1.0865                 1.0473                 1.1055
 Frc consts  --     5.9055                 7.8443                 8.8853
 IR Inten    --    98.1310                80.0219                85.5989
  Atom  AN      X      Y      Z        X      Y      Z        X      Y      Z
     1   1    -0.35   0.93   0.00     0.00  -0.01   0.00     0.00  -0.01   0.00
     2   6     0.03  -0.08   0.00     0.00   0.00   0.00     0.00   0.00   0.00
     3   8     0.00   0.00   0.00     0.00   0.00   0.00     0.00   0.00   0.00
     4   7     0.00   0.00   0.00     0.03   0.04   0.00    -0.07   0.06   0.00
     5   1     0.00  -0.01   0.00     0.19  -0.76   0.00     0.15  -0.60   0.00
     6   1     0.00  -0.01   0.00    -0.60   0.16   0.00     0.76  -0.19   0.00

 -------------------
 - Thermochemistry -
 -------------------
 Temperature   298.150 Kelvin.  Pressure   1.00000 Atm.
 Atom     1 has atomic number  1 and mass   1.00783
 Atom     2 has atomic number  6 and mass  12.00000
 Atom     3 has atomic number  8 and mass  15.99491
 Atom     4 has atomic number  7 and mass  14.00307
 Atom     5 has atomic number  1 and mass   1.00783
 Atom     6 has atomic number  1 and mass   1.00783
 Molecular mass:    45.02146 amu.
 Principal axes and moments of inertia in atomic units:
                           1         2         3
     Eigenvalues --    24.68604 160.12561 184.81165
           X            0.94139  -0.33732   0.00000
           Y            0.33732   0.94139   0.00000
           Z            0.00000   0.00000   1.00000
 This molecule is an asymmetric top.
 Rotational symmetry number  1.
 Rotational temperatures (Kelvin)      3.50862     0.54091     0.46866
 Rotational constants (GHZ):          73.10776    11.27078     9.76530
 Zero-point vibrational energy     120025.0 (Joules/Mol)
                                   28.68666 (Kcal/Mol)
 Warning -- explicit consideration of   2 degrees of freedom as
           vibrations may cause significant error
 Vibrational temperatures:    458.61   827.80   946.21  1513.40  1552.01
          (Kelvin)           1870.73  2052.70  2351.96  2484.03  4370.00
                             5129.98  5313.94
 
 Zero-point correction=                           0.045715 (Hartree/Particle)
 Thermal correction to Energy=                    0.049330
 Thermal correction to Enthalpy=                  0.050274
 Thermal correction to Gibbs Free Energy=         0.021326
 Sum of electronic and zero-point Energies=           -169.869497
 Sum of electronic and thermal Energies=              -169.865882
 Sum of electronic and thermal Enthalpies=            -169.864938
 Sum of electronic and thermal Free Energies=         -169.893886
 
                     E (Thermal)             CV                S
                      KCal/Mol        Cal/Mol-Kelvin    Cal/Mol-Kelvin
 Total                   30.955             10.543             60.927
 Electronic               0.000              0.000              0.000
 Translational            0.889              2.981             37.339
 Rotational               0.889              2.981             21.218
 Vibrational             29.177              4.582              2.369
 Vibration     1          0.705              1.638              1.317
 Vibration     2          0.932              1.085              0.494
                       Q            Log10(Q)             Ln(Q)
 Total Bot       0.155217D-09         -9.809060        -22.586196
 Total V=0       0.165342D+12         11.218383         25.831282
 Vib (Bot)       0.135110D-20        -20.869312        -48.053367
 Vib (Bot)    1  0.590196D+00         -0.229004         -0.527301
 Vib (Bot)    2  0.266083D+00         -0.574983         -1.323948
 Vib (V=0)       0.143923D+01          0.158131          0.364111
 Vib (V=0)    1  0.127352D+01          0.105005          0.241784
 Vib (V=0)    2  0.106639D+01          0.027917          0.064281
 Electronic      0.100000D+01          0.000000          0.000000
 Translational   0.118737D+08          7.074585         16.289833
 Rotational      0.967536D+04          3.985667          9.177338
 ***** Axes restored to original set *****
 -------------------------------------------------------------------
 Center     Atomic                   Forces (Hartrees/Bohr)
 Number     Number              X              Y              Z
 -------------------------------------------------------------------
      1        1          -0.000011922    0.000000000    0.000163366
      2        6           0.000090723    0.000000000    0.000018866
      3        8           0.000280565    0.000000000   -0.000011293
      4        7          -0.000130614    0.000000000   -0.000055539
      5        1          -0.000029935    0.000000000   -0.000271389
      6        1          -0.000198817    0.000000000    0.000155989
 -------------------------------------------------------------------
 Cartesian Forces:  Max     0.000280565 RMS     0.000123111

 GradGradGradGradGradGradGradGradGradGradGradGradGradGradGradGradGradGrad
 Berny optimization.
 Internal  Forces:  Max     0.000285116 RMS     0.000169746
 Search for a local minimum.
 Step number   1 out of a maximum of    2
 All quantities printed in internal units (Hartrees-Bohrs-Radians)
 Second derivative matrix not updated -- analytic derivatives used.
 The second derivative matrix:
                          R1        R2        R3        R4        R5
           R1           0.32706
           R2           0.03051   0.74746
           R3           0.01378   0.09329   0.48816
           R4          -0.00083  -0.00194   0.00681   0.46605
           R5           0.00015  -0.00273   0.00279  -0.00188   0.47283
           A1           0.00064   0.01187  -0.03231   0.00103  -0.00187
           A2           0.01321  -0.04194   0.01056   0.00607  -0.00350
           A3          -0.01386   0.03006   0.02175  -0.00710   0.00536
           A4           0.00266  -0.00217   0.00444   0.00535  -0.00707
           A5          -0.00089   0.00443   0.01126  -0.00873   0.00230
           A6          -0.00177  -0.00226  -0.01570   0.00339   0.00477
           D1           0.00000   0.00000   0.00000   0.00000   0.00000
           D2           0.00000   0.00000   0.00000   0.00000   0.00000
           D3           0.00000   0.00000   0.00000   0.00000   0.00000
           D4           0.00000   0.00000   0.00000   0.00000   0.00000
                          A1        A2        A3        A4        A5
           A1           0.11961
           A2          -0.03616   0.11951
           A3          -0.08346  -0.08335   0.16681
           A4           0.00383   0.01627  -0.02010   0.07812
           A5          -0.00583  -0.01289   0.01872  -0.04265   0.08165
           A6           0.00201  -0.00338   0.00137  -0.03547  -0.03900
           D1           0.00000   0.00000   0.00000   0.00000   0.00000
           D2           0.00000   0.00000   0.00000   0.00000   0.00000
           D3           0.00000   0.00000   0.00000   0.00000   0.00000
           D4           0.00000   0.00000   0.00000   0.00000   0.00000
                          A6        D1        D2        D3        D4
           A6           0.07447
           D1           0.00000   0.02936
           D2           0.00000   0.02302   0.02145
           D3           0.00000  -0.01542  -0.01489   0.02655
           D4           0.00000  -0.02175  -0.01646   0.02708   0.03237
     Eigenvalues ---    0.00406   0.01813   0.08754   0.10682   0.11509
     Eigenvalues ---    0.15119   0.24793   0.33058   0.45837   0.47255
     Eigenvalues ---    0.47463   0.784591000.000001000.000001000.00000
 Angle between quadratic step and forces=  36.16 degrees.
 Linear search not attempted -- first point.
 Iteration  1 RMS(Cart)=  0.00087953 RMS(Int)=  0.00000063
 Iteration  2 RMS(Cart)=  0.00000057 RMS(Int)=  0.00000000
 ClnCor:  largest displacement from symmetrization is 9.80D-13 for atom     4.
 Variable       Old X    -DE/DX   Delta X   Delta X   Delta X     New X
                                 (Linear)    (Quad)   (Total)
    R1        2.08308  -0.00016   0.00000  -0.00047  -0.00047   2.08260
    R2        2.33079   0.00024   0.00000   0.00024   0.00024   2.33103
    R3        2.54508   0.00023   0.00000   0.00033   0.00033   2.54541
    R4        1.91607  -0.00027   0.00000  -0.00051  -0.00051   1.91557
    R5        1.91156   0.00009   0.00000   0.00018   0.00018   1.91174
    A1        2.12655  -0.00009   0.00000  -0.00018  -0.00018   2.12638
    A2        1.97685  -0.00016   0.00000  -0.00049  -0.00049   1.97636
    A3        2.17978   0.00024   0.00000   0.00066   0.00066   2.18045
    A4        2.10568  -0.00011   0.00000  -0.00062  -0.00062   2.10506
    A5        2.11219   0.00029   0.00000   0.00210   0.00210   2.11429
    A6        2.06531  -0.00017   0.00000  -0.00148  -0.00148   2.06384
    D1        3.14159   0.00000   0.00000   0.00000   0.00000   3.14159
    D2        0.00000   0.00000   0.00000   0.00000   0.00000   0.00000
    D3        0.00000   0.00000   0.00000   0.00000   0.00000   0.00000
    D4        3.14159   0.00000   0.00000   0.00000   0.00000   3.14159
         Item               Value     Threshold  Converged?
 Maximum Force            0.000285     0.000450     YES
 RMS     Force            0.000170     0.000300     YES
 Maximum Displacement     0.001960     0.001800     NO 
 RMS     Displacement     0.000879     0.001200     YES
 Predicted change in Energy=-7.668583D-07
 GradGradGradGradGradGradGradGradGradGradGradGradGradGradGradGradGradGrad

 1|1|UNPC-DESKTOP-FUV5GU1|Freq|RB3LYP|6-31+G(d)|C1H3N1O1|USER01|27-Jun-
 2024|0||#N Geom=AllCheck Guess=TCheck SCRF=Check GenChk RB3LYP/6-31+G(
 d) Freq||M0001||0,1|H,0.4624340407,0.,-1.4159454437|C,0.5733904917,0.,
 -0.3192275712|O,1.6813461058,0.,0.2227262068|N,-0.6040670251,0.,0.3345
 788212|H,-0.6324584444,0.,1.3481231349|H,-1.4806451687,0.,-0.170255148
 ||Version=IA32W-G09RevA.02|State=1-A'|HF=-169.9152119|RMSD=5.408e-010|
 RMSF=1.231e-004|ZeroPoint=0.0457151|Thermal=0.0493296|Dipole=-2.091823
 1,0.,-0.3174775|DipoleDeriv=0.0226241,0.,-0.0736132,0.,0.1279455,0.,-0
 .0820707,0.,-0.2179455,2.7327478,0.,-0.0382875,0.,0.3078761,0.,0.00070
 46,0.,1.0652269,-1.8159446,0.,-0.1088671,0.,-0.5333359,0.,-0.5605693,0
 .,-0.7875587,-1.4039076,0.,0.218668,0.,-0.7368737,0.,0.6553415,0.,-0.4
 933156,0.2021648,0.,-0.0163547,0.,0.4070111,0.,-0.0324132,0.,0.2277846
 ,0.2623155,0.,0.0184545,0.,0.4273769,0.,0.0190071,0.,0.2058082|Polar=4
 2.0468153,0.,19.2691889,0.5029915,0.,28.6668989|PG=CS [SG(C1H3N1O1)]|N
 Imag=0||0.07337628,0.,0.02650042,0.01978255,0.,0.32573997,-0.06052419,
 0.,-0.00243175,0.86626475,0.,-0.06157708,0.,0.,0.18510234,-0.01459741,
 0.,-0.28972748,0.10610715,0.,0.75402854,-0.01151704,0.,-0.02364169,-0.
 50579793,0.,-0.23264391,0.62544112,0.,0.01870804,0.,0.,-0.07041511,0.,
 0.,0.03090064,-0.04180211,0.,-0.01473503,-0.21683394,0.,-0.23414322,0.
 25733826,0.,0.20537622,0.00198072,0.,0.00333111,-0.29055609,0.,0.12547
 525,-0.10856571,0.,0.00071930,0.83407076,0.,0.01138470,0.,0.,-0.043509
 38,0.,0.,0.01707619,0.,0.,0.02118967,0.03437751,0.,-0.02146002,0.09543
 608,0.,-0.23262920,-0.00322133,0.,0.04247500,0.03443271,0.,0.83719763,
 -0.00432279,0.,0.00265258,0.00866411,0.,0.03581962,0.00230859,0.,-0.00
 474064,-0.07691057,0.,0.00675432,0.06134632,0.,0.00698315,0.,0.,0.0002
 5186,0.,0.,-0.00519414,0.,0.,-0.00632484,0.,0.,0.00933738,0.00234384,0
 .,0.00061734,0.00185189,0.,-0.01456100,-0.00322416,0.,0.00214267,0.006
 39921,0.,-0.44853519,-0.01238638,0.,0.46566929,0.00100703,0.,0.0003072
 0,-0.01805064,0.,-0.02016071,-0.00186903,0.,0.00531914,-0.36001911,0.,
 -0.16777929,0.00891435,0.,0.00501559,0.37001740,0.,-0.00199923,0.,0.,-
 0.00985262,0.,0.,0.00892439,0.,0.,0.00018367,0.,0.,-0.00505340,0.,0.,0
 .00779719,-0.00010438,0.,-0.00043477,0.01587057,0.,0.01703236,0.005392
 82,0.,-0.00111564,-0.17035758,0.,-0.17704821,-0.02809950,0.,-0.0053331
 0,0.17729807,0.,0.16689936||0.00001192,0.,-0.00016337,-0.00009072,0.,-
 0.00001887,-0.00028056,0.,0.00001129,0.00013061,0.,0.00005554,0.000029
 93,0.,0.00027139,0.00019882,0.,-0.00015599|||@


 IF AT FIRST YOU DON'T SUCCEED, TRY, TRY AGAIN.
 THEN GIVE UP;
 THERE'S NO USE BEING A DAMN FOOL ABOUT IT.

                                 -- W. C. FIELDS
 Job cpu time:  0 days  0 hours  0 minutes 27.0 seconds.
 File lengths (MBytes):  RWF=     15 Int=      0 D2E=      0 Chk=      3 Scr=      1
 Normal termination of Gaussian 09 at Thu Jun 27 20:19:54 2024.
